# LECROYWM813Zi	51496	Waveform
# Segments	1	SegmentSize	4002
# Segment	TrigTime	TimeSinceSegment1
# #1	30-Nov-2018 17:20:54	0                 
# Time	Ampl
-5.001622e-008	0.0184082
-4.999122e-008	0.0175049
-4.996622e-008	0.0355225
-4.994122e-008	0.0224854
-4.991622e-008	0.0109375
-4.989122e-008	0.021875
-4.986622e-008	0.0197266
-4.984122e-008	0.0135498
-4.981622e-008	0.0131836
-4.979122e-008	0.0113281
-4.976622e-008	0.0110107
-4.974122e-008	0.0143799
-4.971622e-008	0.0197022
-4.969122e-008	0.0162109
-4.966622e-008	0.0129883
-4.964122e-008	0.0210205
-4.961622e-008	0.0124024
-4.959122e-008	0.00297852
-4.956622e-008	0.0175049
-4.954122e-008	0.0263428
-4.951622e-008	0.0204102
-4.949122e-008	0.0141357
-4.946622e-008	0.0267334
-4.944122e-008	0.0310059
-4.941622e-008	0.00400391
-4.939122e-008	0.00524903
-4.936622e-008	0.0210693
-4.934122e-008	0.0132813
-4.931622e-008	0.0176025
-4.929122e-008	0.0226318
-4.926622e-008	0.0146729
-4.924122e-008	0.0115479
-4.921622e-008	0.00668946
-4.919122e-008	0.00812989
-4.916622e-008	0.0179199
-4.914122e-008	0.0195557
-4.911622e-008	0.0264649
-4.909122e-008	0.0329834
-4.906622e-008	0.0185547
-4.904122e-008	0.00874024
-4.901622e-008	0.0110352
-4.899122e-008	0.0132324
-4.896622e-008	0.0193359
-4.894122e-008	0.0197022
-4.891622e-008	0.0169434
-4.889122e-008	0.0223633
-4.886622e-008	0.0263916
-4.884122e-008	0.0197266
-4.881622e-008	0.00737305
-4.879122e-008	0.00395509
-4.876622e-008	0.0151123
-4.874122e-008	0.0206055
-4.871622e-008	0.0232666
-4.869122e-008	0.0269043
-4.866622e-008	0.00732423
-4.864122e-008	0.00617677
-4.861622e-008	0.0294678
-4.859122e-008	0.023877
-4.856622e-008	0.0198975
-4.854122e-008	0.0319824
-4.851622e-008	0.0365234
-4.849122e-008	0.0310547
-4.846622e-008	0.0199219
-4.844122e-008	0.0172852
-4.841622e-008	0.0158203
-4.839122e-008	0.0208008
-4.836622e-008	0.0263916
-4.834122e-008	0.00888673
-4.831622e-008	0.00947266
-4.829122e-008	0.0285156
-4.826622e-008	0.0212402
-4.824122e-008	0.0155518
-4.821622e-008	0.021582
-4.819122e-008	0.0272217
-4.816622e-008	0.0348389
-4.814122e-008	0.0263672
-4.811622e-008	0.0202637
-4.809122e-008	0.0264404
-4.806622e-008	0.0248291
-4.804122e-008	0.016919
-4.801622e-008	7.45058e-009
-4.799122e-008	0.000927742
-4.796622e-008	0.0255371
-4.794122e-008	0.0238281
-4.791622e-008	0.0122803
-4.789122e-008	0.0173096
-4.786622e-008	0.0169922
-4.784122e-008	0.0259522
-4.781622e-008	0.0322754
-4.779122e-008	0.0172363
-4.776622e-008	0.0177734
-4.774122e-008	0.0241211
-4.771622e-008	0.0249756
-4.769122e-008	0.0298828
-4.766622e-008	0.0259766
-4.764122e-008	0.0147461
-4.761622e-008	0.000146492
-4.759122e-008	0.00700684
-4.756622e-008	0.02146
-4.754122e-008	0.0192139
-4.751622e-008	0.0164307
-4.749122e-008	0.000927742
-4.746622e-008	0.00969239
-4.744122e-008	0.0342774
-4.741622e-008	0.0233399
-4.739122e-008	0.0199219
-4.736622e-008	0.0214111
-4.734122e-008	0.0125244
-4.731622e-008	0.0154541
-4.729122e-008	0.0150879
-4.726622e-008	0.0128906
-4.724122e-008	0.0211182
-4.721622e-008	0.0218994
-4.719122e-008	0.0136475
-4.716622e-008	0.0174316
-4.714122e-008	0.0209473
-4.711622e-008	0.0179688
-4.709122e-008	0.0197754
-4.706622e-008	0.0219482
-4.704122e-008	0.0273682
-4.701622e-008	0.0290772
-4.699122e-008	0.019043
-4.696622e-008	0.0112549
-4.694122e-008	0.0201904
-4.691622e-008	0.0261963
-4.689122e-008	0.0110596
-4.686622e-008	0.0100098
-4.684122e-008	0.0223145
-4.681622e-008	0.0182373
-4.679122e-008	0.0209961
-4.676622e-008	0.0270752
-4.674122e-008	0.0197754
-4.671622e-008	0.0174805
-4.669122e-008	0.0128906
-4.666622e-008	0.0130371
-4.664122e-008	0.0142822
-4.661622e-008	-0.000805657
-4.659122e-008	0.005542
-4.656622e-008	0.0171875
-4.654122e-008	0.0038086
-4.651622e-008	0.0178955
-4.649122e-008	0.0422119
-4.646622e-008	0.0264649
-4.644122e-008	0.0132813
-4.641622e-008	0.0111328
-4.639122e-008	0.00700684
-4.636622e-008	0.0189941
-4.634122e-008	0.0227539
-4.631622e-008	0.0172852
-4.629122e-008	0.0175781
-4.626622e-008	0.0253418
-4.624122e-008	0.0324463
-4.621622e-008	0.0196289
-4.619122e-008	0.0186279
-4.616622e-008	0.0208496
-4.614122e-008	0.0135742
-4.611622e-008	0.0298828
-4.609122e-008	0.0316162
-4.606622e-008	0.0185791
-4.604122e-008	0.0301025
-4.601622e-008	0.0326172
-4.599122e-008	0.0217041
-4.596622e-008	0.0180908
-4.594122e-008	0.00910645
-4.591622e-008	0.0151367
-4.589122e-008	0.0247559
-4.586622e-008	0.017334
-4.584122e-008	0.0243897
-4.581622e-008	0.0187256
-4.579122e-008	0.0128662
-4.576622e-008	0.0242188
-4.574122e-008	0.0107178
-4.571622e-008	0.0114258
-4.569122e-008	0.0180664
-4.566622e-008	0.00219727
-4.564122e-008	0.00996095
-4.561622e-008	0.0249268
-4.559122e-008	0.0210693
-4.556622e-008	0.022168
-4.554122e-008	0.0257568
-4.551622e-008	0.0229248
-4.549122e-008	0.0259033
-4.546622e-008	0.0300049
-4.544122e-008	0.0326904
-4.541622e-008	0.0198486
-4.539122e-008	0.0039795
-4.536622e-008	0.0260498
-4.534122e-008	0.0379639
-4.531622e-008	0.02146
-4.529122e-008	0.0190918
-4.526622e-008	0.0321777
-4.524122e-008	0.0433838
-4.521622e-008	0.0228516
-4.519122e-008	0.00627442
-4.516622e-008	0.0189697
-4.514122e-008	0.0199463
-4.511622e-008	0.0238037
-4.509122e-008	0.0303955
-4.506622e-008	0.02146
-4.504122e-008	0.017627
-4.501622e-008	0.0133057
-4.499122e-008	0.00595704
-4.496622e-008	0.0130859
-4.494122e-008	0.0228272
-4.491622e-008	0.0263184
-4.489122e-008	0.0247559
-4.486622e-008	0.018042
-4.484122e-008	0.0208008
-4.481622e-008	0.022876
-4.479122e-008	0.0205322
-4.476622e-008	0.0244629
-4.474122e-008	0.0143555
-4.471622e-008	0.0126465
-4.469122e-008	0.0275879
-4.466622e-008	0.0211426
-4.464122e-008	0.0159668
-4.461622e-008	0.0155274
-4.459122e-008	0.00891114
-4.456622e-008	0.0200684
-4.454122e-008	0.0265381
-4.451622e-008	0.0217774
-4.449122e-008	0.0227051
-4.446622e-008	0.0259033
-4.444122e-008	0.0286377
-4.441622e-008	0.0232666
-4.439122e-008	0.0228027
-4.436622e-008	0.0269775
-4.434122e-008	0.0326172
-4.431622e-008	0.0350098
-4.429122e-008	0.0218018
-4.426622e-008	0.023291
-4.424122e-008	0.0260986
-4.421622e-008	0.0112549
-4.419122e-008	0.0109619
-4.416622e-008	0.0195557
-4.414122e-008	0.0176025
-4.411622e-008	0.0183106
-4.409122e-008	0.0273926
-4.406622e-008	0.0253662
-4.404122e-008	0.0186035
-4.401622e-008	0.0124756
-4.399122e-008	0.00642091
-4.396622e-008	0.0168213
-4.394122e-008	0.0166992
-4.391622e-008	0.0105469
-4.389122e-008	0.0255127
-4.386622e-008	0.0264893
-4.384122e-008	0.0176758
-4.381622e-008	0.0234863
-4.379122e-008	0.0164551
-4.376622e-008	-0.0019287
-4.374122e-008	0.00278321
-4.371622e-008	0.0254395
-4.369122e-008	0.0306397
-4.366622e-008	0.0240479
-4.364122e-008	0.0249756
-4.361622e-008	0.0147461
-4.359122e-008	0.00839845
-4.356622e-008	0.0172363
-4.354122e-008	0.0160889
-4.351622e-008	0.0118164
-4.349122e-008	0.0125
-4.346622e-008	0.0266358
-4.344122e-008	0.0279541
-4.341622e-008	-0.000634758
-4.339122e-008	0.00100098
-4.336622e-008	0.0198975
-4.334122e-008	0.0207764
-4.331622e-008	0.0220703
-4.329122e-008	0.0115723
-4.326622e-008	0.0129395
-4.324122e-008	0.0321045
-4.321622e-008	0.0174316
-4.319122e-008	0.000585945
-4.316622e-008	0.0198486
-4.314122e-008	0.0311035
-4.311622e-008	0.0207764
-4.309122e-008	0.0186279
-4.306622e-008	0.0236816
-4.304122e-008	0.0185059
-4.301622e-008	0.0184326
-4.299122e-008	0.0275391
-4.296622e-008	0.020044
-4.294122e-008	0.0137695
-4.291622e-008	0.0268555
-4.289122e-008	0.0270264
-4.286622e-008	0.0140869
-4.284122e-008	0.011499
-4.281622e-008	0.0143799
-4.279122e-008	0.023291
-4.276622e-008	0.0265137
-4.274122e-008	0.0187012
-4.271622e-008	0.0224854
-4.269122e-008	0.0159668
-4.266622e-008	0.010083
-4.264122e-008	0.028833
-4.261622e-008	0.0155274
-4.259122e-008	0.000634773
-4.256622e-008	0.0211914
-4.254122e-008	0.0241943
-4.251622e-008	0.0285645
-4.249122e-008	0.0333252
-4.246622e-008	0.0257568
-4.244122e-008	0.0300781
-4.241622e-008	0.018042
-4.239122e-008	0.00598145
-4.236622e-008	0.012915
-4.234122e-008	0.0126465
-4.231622e-008	0.0138428
-4.229122e-008	0.0110107
-4.226622e-008	0.00471192
-4.224122e-008	0.00817872
-4.221622e-008	0.00698243
-4.219122e-008	0.0128662
-4.216622e-008	0.0188232
-4.214122e-008	0.0146484
-4.211622e-008	0.0239502
-4.209122e-008	0.0178955
-4.206622e-008	0.00788575
-4.204122e-008	0.0138916
-4.201622e-008	0.00598145
-4.199122e-008	0.0153076
-4.196622e-008	0.0293457
-4.194122e-008	0.0239258
-4.191622e-008	0.0173096
-4.189122e-008	0.0145752
-4.186622e-008	0.0320557
-4.184122e-008	0.0361572
-4.181622e-008	0.0156006
-4.179122e-008	0.00759278
-4.176622e-008	0.0134033
-4.174122e-008	0.0200928
-4.171622e-008	0.0185303
-4.169122e-008	0.0174316
-4.166622e-008	0.0250244
-4.164122e-008	0.0334229
-4.161622e-008	0.0251953
-4.159122e-008	0.0135986
-4.156622e-008	0.0176758
-4.154122e-008	0.0185791
-4.151622e-008	0.016919
-4.149122e-008	0.0182373
-4.146622e-008	0.0248535
-4.144122e-008	0.0296631
-4.141622e-008	0.0206299
-4.139122e-008	0.0172852
-4.136622e-008	0.0218262
-4.134122e-008	0.0282715
-4.131622e-008	0.0233154
-4.129122e-008	0.00319825
-4.126622e-008	0.0110352
-4.124122e-008	0.0292969
-4.121622e-008	0.0201416
-4.119122e-008	0.016626
-4.116622e-008	0.0232666
-4.114122e-008	0.0202881
-4.111622e-008	0.0247559
-4.109122e-008	0.0381836
-4.106622e-008	0.0353272
-4.104122e-008	0.0204102
-4.101622e-008	0.0242432
-4.099122e-008	0.0338867
-4.096622e-008	0.0233887
-4.094122e-008	0.0200195
-4.091622e-008	0.0223877
-4.089122e-008	0.0117188
-4.086622e-008	0.0205566
-4.084122e-008	0.0166504
-4.081622e-008	-0.0127197
-4.079122e-008	0.00920411
-4.076622e-008	0.034668
-4.074122e-008	0.0188721
-4.071622e-008	0.0180176
-4.069122e-008	0.023169
-4.066622e-008	0.0261719
-4.064122e-008	0.0275879
-4.061622e-008	0.018335
-4.059122e-008	0.0196289
-4.056622e-008	0.0218994
-4.054122e-008	0.017749
-4.051622e-008	0.021582
-4.049122e-008	0.0225342
-4.046622e-008	0.0205078
-4.044122e-008	0.026709
-4.041622e-008	0.0247803
-4.039122e-008	0.0195801
-4.036622e-008	0.021875
-4.034122e-008	0.022583
-4.031622e-008	0.0262451
-4.029122e-008	0.0168213
-4.026622e-008	0.0128174
-4.024122e-008	0.0248047
-4.021622e-008	0.0136963
-4.019122e-008	0.0115479
-4.016622e-008	0.0253906
-4.014122e-008	0.0188965
-4.011622e-008	0.0125488
-4.009122e-008	0.0201416
-4.006622e-008	0.0296631
-4.004122e-008	0.0258789
-4.001622e-008	0.0105957
-3.999122e-008	0.0148682
-3.996622e-008	0.0300293
-3.994122e-008	0.0176025
-3.991622e-008	-0.00175781
-3.989122e-008	-0.00310058
-3.986622e-008	0.0182373
-3.984122e-008	0.0315674
-3.981622e-008	0.000634773
-3.979122e-008	-0.000805657
-3.976622e-008	0.0185303
-3.974122e-008	0.0090088
-3.971622e-008	0.0205322
-3.969122e-008	0.0187988
-3.966622e-008	0.00993653
-3.964122e-008	0.0183106
-3.961622e-008	0.00891114
-3.959122e-008	0.020044
-3.956622e-008	0.022168
-3.954122e-008	0.00612794
-3.951622e-008	0.0227051
-3.949122e-008	0.0207764
-3.946622e-008	0.011084
-3.944122e-008	0.0209229
-3.941622e-008	0.0173096
-3.939122e-008	0.0241699
-3.936622e-008	0.0297363
-3.934122e-008	0.0153076
-3.931622e-008	0.0121826
-3.929122e-008	0.0199463
-3.926622e-008	0.0328125
-3.924122e-008	0.0337891
-3.921622e-008	0.012085
-3.919122e-008	0.00766602
-3.916622e-008	0.0294434
-3.914122e-008	0.0344483
-3.911622e-008	0.0165283
-3.909122e-008	0.0104492
-3.906622e-008	0.0210938
-3.904122e-008	0.0221436
-3.901622e-008	0.00549317
-3.899122e-008	0.00229493
-3.896622e-008	0.0203369
-3.894122e-008	0.0222656
-3.891622e-008	0.0138428
-3.889122e-008	0.0175049
-3.886622e-008	0.0271484
-3.884122e-008	0.0323242
-3.881622e-008	0.0138672
-3.879122e-008	0.00285645
-3.876622e-008	0.0252686
-3.874122e-008	0.0244385
-3.871622e-008	0.0118164
-3.869122e-008	0.0231934
-3.866622e-008	0.0200195
-3.864122e-008	0.0148438
-3.861622e-008	0.0210205
-3.859122e-008	0.0176025
-3.856622e-008	0.0179199
-3.854122e-008	0.0195313
-3.851622e-008	0.016626
-3.849122e-008	0.0141602
-3.846622e-008	0.00908204
-3.844122e-008	0.0123047
-3.841622e-008	0.0176758
-3.839122e-008	0.0170899
-3.836622e-008	0.0266602
-3.834122e-008	0.0286133
-3.831622e-008	0.0187744
-3.829122e-008	0.0186279
-3.826622e-008	0.0186768
-3.824122e-008	0.0249756
-3.821622e-008	0.0264893
-3.819122e-008	0.0171631
-3.816622e-008	0.00930177
-3.814122e-008	0.00344239
-3.811622e-008	0.0261963
-3.809122e-008	0.0359619
-3.806622e-008	0.0162354
-3.804122e-008	0.0246582
-3.801622e-008	0.0324463
-3.799122e-008	0.0233887
-3.796622e-008	0.0121338
-3.794122e-008	0.0050293
-3.791622e-008	0.0223389
-3.789122e-008	0.0236572
-3.786622e-008	0.00803223
-3.784122e-008	0.0160156
-3.781622e-008	0.0191895
-3.779122e-008	0.0165039
-3.776622e-008	0.0176758
-3.774122e-008	0.0162598
-3.771622e-008	0.0264649
-3.769122e-008	0.0262695
-3.766622e-008	0.0198486
-3.764122e-008	0.0221436
-3.761622e-008	0.0038086
-3.759122e-008	-0.000317375
-3.756622e-008	0.02229
-3.754122e-008	0.0225098
-3.751622e-008	0.0233154
-3.749122e-008	0.0240967
-3.746622e-008	0.01604
-3.744122e-008	0.0241943
-3.741622e-008	0.0195801
-3.739122e-008	0.0169678
-3.736622e-008	0.0235352
-3.734122e-008	0.00986329
-3.731622e-008	0.00776368
-3.729122e-008	0.0104736
-3.726622e-008	0.00734864
-3.724122e-008	0.0168457
-3.721622e-008	0.0234619
-3.719122e-008	0.0271973
-3.716622e-008	0.0272949
-3.714122e-008	0.0214356
-3.711622e-008	0.0160156
-3.709122e-008	0.00825196
-3.706622e-008	0.0184326
-3.704122e-008	0.0352051
-3.701622e-008	0.0259033
-3.699122e-008	0.0166748
-3.696622e-008	0.0173828
-3.694122e-008	0.0156982
-3.691622e-008	0.0259033
-3.689122e-008	0.0308106
-3.686622e-008	0.0220215
-3.684122e-008	0.024707
-3.681622e-008	0.0248291
-3.679122e-008	0.0171631
-3.676622e-008	0.0219971
-3.674122e-008	0.021167
-3.671622e-008	0.0119873
-3.669122e-008	0.0138428
-3.666622e-008	0.0254395
-3.664122e-008	0.0365967
-3.661622e-008	0.022168
-3.659122e-008	0.0163574
-3.656622e-008	0.0334473
-3.654122e-008	0.0220703
-3.651622e-008	0.019043
-3.649122e-008	0.0188232
-3.646622e-008	0.00539552
-3.644122e-008	0.0267334
-3.641622e-008	0.0312744
-3.639122e-008	0.0226563
-3.636622e-008	0.0319336
-3.634122e-008	0.0133057
-3.631622e-008	0.000122078
-3.629122e-008	0.00888673
-3.626622e-008	0.0118897
-3.624122e-008	0.0175293
-3.621622e-008	0.019458
-3.619122e-008	0.0167725
-3.616622e-008	0.0197998
-3.614122e-008	0.0308106
-3.611622e-008	0.0406738
-3.609122e-008	0.0357666
-3.606622e-008	0.0248291
-3.604122e-008	0.0170899
-3.601622e-008	0.0129395
-3.599122e-008	0.0220215
-3.596622e-008	0.0290527
-3.594122e-008	0.0194336
-3.591622e-008	0.0147949
-3.589122e-008	0.00878907
-3.586622e-008	0.0130371
-3.584122e-008	0.0305908
-3.581622e-008	0.0138916
-3.579122e-008	0.00944825
-3.576622e-008	0.03396
-3.574122e-008	0.0268799
-3.571622e-008	0.0178711
-3.569122e-008	0.020459
-3.566622e-008	0.0165772
-3.564122e-008	0.0176025
-3.561622e-008	0.018335
-3.559122e-008	0.0214844
-3.556622e-008	0.0267578
-3.554122e-008	0.0240967
-3.551622e-008	0.0188232
-3.549122e-008	0.0159424
-3.546622e-008	0.0197266
-3.544122e-008	0.0339356
-3.541622e-008	0.0360596
-3.539122e-008	0.0280762
-3.536622e-008	0.0273438
-3.534122e-008	0.0147461
-3.531622e-008	0.0144775
-3.529122e-008	0.0257568
-3.526622e-008	0.0209961
-3.524122e-008	0.0209229
-3.521622e-008	0.0170899
-3.519122e-008	0.0198975
-3.516622e-008	0.0292725
-3.514122e-008	0.0269531
-3.511622e-008	0.026001
-3.509122e-008	0.0136231
-3.506622e-008	0.0109375
-3.504122e-008	0.0299316
-3.501622e-008	0.0370606
-3.499122e-008	0.0248291
-3.496622e-008	0.0104981
-3.494122e-008	0.0143066
-3.491622e-008	0.0189697
-3.489122e-008	0.0126709
-3.486622e-008	0.0150635
-3.484122e-008	0.0279053
-3.481622e-008	0.0348877
-3.479122e-008	0.0263428
-3.476622e-008	0.0170166
-3.474122e-008	0.0251709
-3.471622e-008	0.0300293
-3.469122e-008	0.0113037
-3.466622e-008	0.0121826
-3.464122e-008	0.0283691
-3.461622e-008	0.0175293
-3.459122e-008	0.015918
-3.456622e-008	0.0219727
-3.454122e-008	0.0083252
-3.451622e-008	0.00925294
-3.449122e-008	0.0192383
-3.446622e-008	0.019458
-3.444122e-008	0.0236328
-3.441622e-008	0.0118897
-3.439122e-008	0.00180665
-3.436622e-008	0.018042
-3.434122e-008	0.0169922
-3.431622e-008	0.0181885
-3.429122e-008	0.0353516
-3.426622e-008	0.0299805
-3.424122e-008	0.0229248
-3.421622e-008	0.0219482
-3.419122e-008	0.0203857
-3.416622e-008	0.0203857
-3.414122e-008	0.00993653
-3.411622e-008	0.00954591
-3.409122e-008	0.0187744
-3.406622e-008	0.0151123
-3.404122e-008	0.00834962
-3.401622e-008	0.0104004
-3.399122e-008	0.0240234
-3.396622e-008	0.0279053
-3.394122e-008	0.0186035
-3.391622e-008	0.0268555
-3.389122e-008	0.0309815
-3.386622e-008	0.0188477
-3.384122e-008	0.0185547
-3.381622e-008	0.0189453
-3.379122e-008	0.0159912
-3.376622e-008	0.0165772
-3.374122e-008	0.0181885
-3.371622e-008	0.0266113
-3.369122e-008	0.0175049
-3.366622e-008	0.010083
-3.364122e-008	0.023999
-3.361622e-008	0.0125977
-3.359122e-008	0.010083
-3.356622e-008	0.0255615
-3.354122e-008	0.0164795
-3.351622e-008	0.00195313
-3.349122e-008	-0.00200195
-3.346622e-008	0.0206299
-3.344122e-008	0.0212647
-3.341622e-008	-0.000878899
-3.339122e-008	0.0146484
-3.336622e-008	0.0211182
-3.334122e-008	0.022876
-3.331622e-008	0.0236084
-3.329122e-008	0.00898438
-3.326622e-008	0.019043
-3.324122e-008	0.0161621
-3.321622e-008	0.0019043
-3.319122e-008	0.0125244
-3.316622e-008	0.0181397
-3.314122e-008	0.0178467
-3.311622e-008	0.0275391
-3.309122e-008	0.0310791
-3.306622e-008	0.0251953
-3.304122e-008	0.0254395
-3.301622e-008	0.0131592
-3.299122e-008	0.00324708
-3.296622e-008	0.0171875
-3.294122e-008	0.0157227
-3.291622e-008	0.0175537
-3.289122e-008	0.0294678
-3.286622e-008	0.0284912
-3.284122e-008	0.0303223
-3.281622e-008	0.0105957
-3.279122e-008	0.00581055
-3.276622e-008	0.0306397
-3.274122e-008	0.0169678
-3.271622e-008	0.016333
-3.269122e-008	0.0317383
-3.266622e-008	0.0153809
-3.264122e-008	0.0227539
-3.261622e-008	0.03396
-3.259122e-008	0.0238037
-3.256622e-008	0.0272949
-3.254122e-008	0.0225342
-3.251622e-008	0.0111328
-3.249122e-008	0.0116699
-3.246622e-008	0.0161865
-3.244122e-008	0.02229
-3.241622e-008	0.0187744
-3.239122e-008	0.0151611
-3.236622e-008	0.0155518
-3.234122e-008	0.0113525
-3.231622e-008	0.0172852
-3.229122e-008	0.0277344
-3.226622e-008	0.029541
-3.224122e-008	0.0249756
-3.221622e-008	0.016333
-3.219122e-008	0.0187256
-3.216622e-008	0.031665
-3.214122e-008	0.0294678
-3.211622e-008	0.0176758
-3.209122e-008	0.00786134
-3.206622e-008	0.0119141
-3.204122e-008	0.0327149
-3.201622e-008	0.0211182
-3.199122e-008	0.0020752
-3.196622e-008	0.014502
-3.194122e-008	0.0208984
-3.191622e-008	0.0300781
-3.189122e-008	0.0344238
-3.186622e-008	0.0229248
-3.184122e-008	0.0174072
-3.181622e-008	0.0168701
-3.179122e-008	0.0287598
-3.176622e-008	0.02854
-3.174122e-008	0.0128418
-3.171622e-008	0.0110596
-3.169122e-008	0.0108643
-3.166622e-008	0.0196045
-3.164122e-008	0.0307617
-3.161622e-008	0.0203369
-3.159122e-008	0.0151856
-3.156622e-008	0.0192871
-3.154122e-008	0.0138916
-3.151622e-008	0.0161377
-3.149122e-008	0.0241699
-3.146622e-008	0.0253418
-3.144122e-008	0.0168945
-3.141622e-008	0.00097657
-3.139122e-008	0.0116455
-3.136622e-008	0.024292
-3.134122e-008	0.00302735
-3.131622e-008	0.00737305
-3.129122e-008	0.0216309
-3.126622e-008	0.0154785
-3.124122e-008	0.0320068
-3.121622e-008	0.0316406
-3.119122e-008	0.0151856
-3.116622e-008	0.0202393
-3.114122e-008	0.0146729
-3.111622e-008	0.0197266
-3.109122e-008	0.0298828
-3.106622e-008	0.0210205
-3.104122e-008	0.0286377
-3.101622e-008	0.0311279
-3.099122e-008	0.0170654
-3.096622e-008	0.0177002
-3.094122e-008	0.0184815
-3.091622e-008	0.0150635
-3.089122e-008	0.0246582
-3.086622e-008	0.033252
-3.084122e-008	0.0250977
-3.081622e-008	0.0184326
-3.079122e-008	0.0158447
-3.076622e-008	0.00703126
-3.074122e-008	0.0147949
-3.071622e-008	0.0259033
-3.069122e-008	0.0136475
-3.066622e-008	0.0124756
-3.064122e-008	0.0297119
-3.061622e-008	0.0352783
-3.059122e-008	0.032544
-3.056622e-008	0.0219971
-3.054122e-008	0.0105957
-3.051622e-008	0.0219727
-3.049122e-008	0.0255615
-3.046622e-008	0.0188232
-3.044122e-008	0.0337158
-3.041622e-008	0.0299805
-3.039122e-008	0.0168457
-3.036622e-008	0.0312256
-3.034122e-008	0.0320801
-3.031622e-008	0.0165039
-3.029122e-008	0.0119873
-3.026622e-008	0.0186524
-3.024122e-008	0.0208496
-3.021622e-008	0.0238525
-3.019122e-008	0.0396729
-3.016622e-008	0.0297608
-3.014122e-008	0.00515137
-3.011622e-008	0.0102051
-3.009122e-008	0.0218506
-3.006622e-008	0.0201172
-3.004122e-008	0.0130859
-3.001622e-008	0.0113037
-2.999122e-008	0.0193604
-2.996622e-008	0.0275147
-2.994122e-008	0.0292969
-2.991622e-008	0.0275635
-2.989122e-008	0.0297852
-2.986622e-008	0.0370361
-2.984122e-008	0.0313721
-2.981622e-008	0.0150635
-2.979122e-008	0.0152588
-2.976622e-008	0.0206543
-2.974122e-008	0.0205566
-2.971622e-008	0.0218994
-2.969122e-008	0.0166016
-2.966622e-008	0.0217774
-2.964122e-008	0.0304199
-2.961622e-008	0.0200928
-2.959122e-008	0.0162598
-2.956622e-008	0.0245606
-2.954122e-008	0.0275391
-2.951622e-008	0.0274902
-2.949122e-008	0.0225342
-2.946622e-008	0.0191406
-2.944122e-008	0.0292236
-2.941622e-008	0.0263184
-2.939122e-008	0.0140869
-2.936622e-008	0.0244629
-2.934122e-008	0.0259033
-2.931622e-008	0.0112549
-2.929122e-008	0.0134522
-2.926622e-008	0.0295899
-2.924122e-008	0.0342774
-2.921622e-008	0.0167969
-2.919122e-008	0.0137695
-2.916622e-008	0.0241211
-2.914122e-008	0.0194336
-2.911622e-008	0.0124512
-2.909122e-008	0.000268562
-2.906622e-008	-0.000244133
-2.904122e-008	0.0237305
-2.901622e-008	0.0373047
-2.899122e-008	0.0309326
-2.896622e-008	0.0193359
-2.894122e-008	0.0127686
-2.891622e-008	0.0157227
-2.889122e-008	0.0237061
-2.886622e-008	0.0310547
-2.884122e-008	0.0227051
-2.881622e-008	-0.00236816
-2.879122e-008	0.00295411
-2.876622e-008	0.034668
-2.874122e-008	0.0288086
-2.871622e-008	0.00292969
-2.869122e-008	-0.00236816
-2.866622e-008	0.00603028
-2.864122e-008	0.0146973
-2.861622e-008	0.0150391
-2.859122e-008	0.0156982
-2.856622e-008	0.014917
-2.854122e-008	0.0178955
-2.851622e-008	0.0201172
-2.849122e-008	0.0112549
-2.846622e-008	0.0217285
-2.844122e-008	0.0257324
-2.841622e-008	0.0108154
-2.839122e-008	0.0166748
-2.836622e-008	0.0171143
-2.834122e-008	0.0109131
-2.831622e-008	0.0196289
-2.829122e-008	0.0245606
-2.826622e-008	0.0199707
-2.824122e-008	0.0175293
-2.821622e-008	0.0244629
-2.819122e-008	0.0230957
-2.816622e-008	0.0134033
-2.814122e-008	0.0146484
-2.811622e-008	0.018042
-2.809122e-008	0.0131348
-2.806622e-008	0.0205322
-2.804122e-008	0.0357422
-2.801622e-008	0.0161377
-2.799122e-008	0.00419923
-2.796622e-008	0.0168457
-2.794122e-008	0.00898438
-2.791622e-008	0.0172607
-2.789122e-008	0.028418
-2.786622e-008	0.0248779
-2.784122e-008	0.030249
-2.781622e-008	0.020752
-2.779122e-008	0.0203125
-2.776622e-008	0.0253174
-2.774122e-008	0.0208008
-2.771622e-008	0.0318359
-2.769122e-008	0.0221436
-2.766622e-008	0.0120361
-2.764122e-008	0.027124
-2.761622e-008	0.0195557
-2.759122e-008	0.0126221
-2.756622e-008	0.0156006
-2.754122e-008	0.014624
-2.751622e-008	0.0237305
-2.749122e-008	0.0126953
-2.746622e-008	0.00664063
-2.744122e-008	0.0313721
-2.741622e-008	0.0343262
-2.739122e-008	0.0184326
-2.736622e-008	0.0162842
-2.734122e-008	0.0217774
-2.731622e-008	0.0264404
-2.729122e-008	0.0241455
-2.726622e-008	0.0233399
-2.724122e-008	0.0278565
-2.721622e-008	0.00847169
-2.719122e-008	-0.00444335
-2.716622e-008	0.0201904
-2.714122e-008	0.0301758
-2.711622e-008	0.0235352
-2.709122e-008	0.0194336
-2.706622e-008	0.0200684
-2.704122e-008	0.0292481
-2.701622e-008	0.015625
-2.699122e-008	0.00715333
-2.696622e-008	0.0233887
-2.694122e-008	0.0170654
-2.691622e-008	0.00656739
-2.689122e-008	0.0133545
-2.686622e-008	0.0174805
-2.684122e-008	0.0234131
-2.681622e-008	0.0190186
-2.679122e-008	0.00793458
-2.676622e-008	0.0147461
-2.674122e-008	0.0230469
-2.671622e-008	0.0304932
-2.669122e-008	0.0360596
-2.666622e-008	0.033374
-2.664122e-008	0.025293
-2.661622e-008	0.0119385
-2.659122e-008	0.0178467
-2.656622e-008	0.0179688
-2.654122e-008	0.00820313
-2.651622e-008	0.020044
-2.649122e-008	0.0178711
-2.646622e-008	0.0246826
-2.644122e-008	0.042749
-2.641622e-008	0.0270996
-2.639122e-008	0.0174561
-2.636622e-008	0.0182617
-2.634122e-008	0.0166992
-2.631622e-008	0.0227539
-2.629122e-008	0.0139649
-2.626622e-008	0.0164795
-2.624122e-008	0.0327637
-2.621622e-008	0.0180664
-2.619122e-008	0.0130371
-2.616622e-008	0.0256836
-2.614122e-008	0.0216797
-2.611622e-008	0.0221924
-2.609122e-008	0.0238281
-2.606622e-008	0.0258789
-2.604122e-008	0.0219727
-2.601622e-008	0.00966798
-2.599122e-008	0.0149414
-2.596622e-008	0.0141357
-2.594122e-008	0.014502
-2.591622e-008	0.0251953
-2.589122e-008	0.0146484
-2.586622e-008	0.0148926
-2.584122e-008	0.0259033
-2.581622e-008	0.0110352
-2.579122e-008	0.0115967
-2.576622e-008	0.0309326
-2.574122e-008	0.027124
-2.571622e-008	0.0136963
-2.569122e-008	0.012915
-2.566622e-008	0.0265869
-2.564122e-008	0.0208984
-2.561622e-008	0.0060547
-2.559122e-008	0.0174561
-2.556622e-008	0.0126709
-2.554122e-008	0.00612794
-2.551622e-008	0.00871583
-2.549122e-008	0.00229493
-2.546622e-008	0.0198731
-2.544122e-008	0.0246338
-2.541622e-008	0.0229004
-2.539122e-008	0.0365479
-2.536622e-008	0.0178467
-2.534122e-008	0.0116699
-2.531622e-008	0.0333984
-2.529122e-008	0.0351563
-2.526622e-008	0.0258545
-2.524122e-008	0.0135742
-2.521622e-008	0.0118164
-2.519122e-008	0.0244385
-2.516622e-008	0.0253418
-2.514122e-008	0.019751
-2.511622e-008	0.0182373
-2.509122e-008	0.00805665
-2.506622e-008	0.00898438
-2.504122e-008	0.0284424
-2.501622e-008	0.0224121
-2.499122e-008	0.00852052
-2.496622e-008	0.0140137
-2.494122e-008	0.0133545
-2.491622e-008	0.0164063
-2.489122e-008	0.0258057
-2.486622e-008	0.024585
-2.484122e-008	0.0206299
-2.481622e-008	0.0166992
-2.479122e-008	0.0120606
-2.476622e-008	0.0179443
-2.474122e-008	0.0198975
-2.471622e-008	0.00141602
-2.469122e-008	0.0022461
-2.466622e-008	0.0240967
-2.464122e-008	0.0274658
-2.461622e-008	0.0149658
-2.459122e-008	0.00593262
-2.456622e-008	0.0119629
-2.454122e-008	0.0121582
-2.451622e-008	0.0153809
-2.449122e-008	0.0315918
-2.446622e-008	0.0263672
-2.444122e-008	0.0181885
-2.441622e-008	0.0183838
-2.439122e-008	0.0141357
-2.436622e-008	0.0195313
-2.434122e-008	0.0231445
-2.431622e-008	0.0088379
-2.429122e-008	0.000146492
-2.426622e-008	0.0165039
-2.424122e-008	0.0240479
-2.421622e-008	0.0100586
-2.419122e-008	0.00595704
-2.416622e-008	0.013501
-2.414122e-008	0.0210205
-2.411622e-008	0.0162109
-2.409122e-008	0.00629884
-2.406622e-008	0.0138184
-2.404122e-008	0.0132324
-2.401622e-008	0.00480958
-2.399122e-008	0.0200684
-2.396622e-008	0.0216065
-2.394122e-008	0.00808106
-2.391622e-008	0.0149902
-2.389122e-008	0.0204834
-2.386622e-008	0.0248047
-2.384122e-008	0.0252197
-2.381622e-008	0.00803223
-2.379122e-008	0.00734864
-2.376622e-008	0.0160645
-2.374122e-008	0.0104492
-2.371622e-008	0.0162109
-2.369122e-008	0.027124
-2.366622e-008	0.0199707
-2.364122e-008	0.0145508
-2.361622e-008	0.0223877
-2.359122e-008	0.0254639
-2.356622e-008	0.0237549
-2.354122e-008	0.02229
-2.351622e-008	0.0154297
-2.349122e-008	0.0114746
-2.346622e-008	0.0148682
-2.344122e-008	0.0196045
-2.341622e-008	0.0116943
-2.339122e-008	0.00273438
-2.336622e-008	0.0156982
-2.334122e-008	0.0265381
-2.331622e-008	0.024292
-2.329122e-008	0.0178711
-2.326622e-008	0.0216309
-2.324122e-008	0.0237793
-2.321622e-008	0.00795899
-2.319122e-008	0.0177734
-2.316622e-008	0.0252197
-2.314122e-008	0.0105225
-2.311622e-008	0.0168945
-2.309122e-008	0.0226074
-2.306622e-008	0.0293457
-2.304122e-008	0.0373535
-2.301622e-008	0.027832
-2.299122e-008	0.0163818
-2.296622e-008	0.0111816
-2.294122e-008	0.0167969
-2.291622e-008	0.0183838
-2.289122e-008	0.0189209
-2.286622e-008	0.0317871
-2.284122e-008	0.0301025
-2.281622e-008	0.0163574
-2.279122e-008	0.0198242
-2.276622e-008	0.026294
-2.274122e-008	0.0147705
-2.271622e-008	0.0109375
-2.269122e-008	0.0228027
-2.266622e-008	0.0158203
-2.264122e-008	0.00517579
-2.261622e-008	0.0185547
-2.259122e-008	0.0235352
-2.256622e-008	0.0133545
-2.254122e-008	0.014917
-2.251622e-008	0.0198242
-2.249122e-008	0.0106445
-2.246622e-008	0.00937501
-2.244122e-008	0.0310059
-2.241622e-008	0.0348877
-2.239122e-008	0.0210449
-2.236622e-008	0.0188721
-2.234122e-008	0.0173584
-2.231622e-008	0.0233154
-2.229122e-008	0.0294434
-2.226622e-008	0.0313965
-2.224122e-008	0.0339356
-2.221622e-008	0.0168945
-2.219122e-008	0.0138428
-2.216622e-008	0.0292725
-2.214122e-008	0.0240723
-2.211622e-008	0.0174805
-2.209122e-008	0.0171631
-2.206622e-008	0.0158203
-2.204122e-008	0.0182861
-2.201622e-008	0.0143066
-2.199122e-008	0.0114502
-2.196622e-008	0.0207031
-2.194122e-008	0.0209717
-2.191622e-008	0.0175049
-2.189122e-008	0.0224854
-2.186622e-008	0.0196777
-2.184122e-008	0.0259277
-2.181622e-008	0.0206055
-2.179122e-008	-0.000439446
-2.176622e-008	0.0134522
-2.174122e-008	0.0231934
-2.171622e-008	0.0156982
-2.169122e-008	0.0164795
-2.166622e-008	0.0193359
-2.164122e-008	0.028833
-2.161622e-008	0.0260742
-2.159122e-008	0.0179688
-2.156622e-008	0.0179199
-2.154122e-008	0.0191895
-2.151622e-008	0.0281006
-2.149122e-008	0.0291748
-2.146622e-008	0.0187744
-2.144122e-008	0.0197266
-2.141622e-008	0.0218018
-2.139122e-008	0.0108154
-2.136622e-008	0.0108643
-2.134122e-008	0.014917
-2.131622e-008	0.0154541
-2.129122e-008	0.0197754
-2.126622e-008	0.0141602
-2.124122e-008	0.0202637
-2.121622e-008	0.0248291
-2.119122e-008	0.0104492
-2.116622e-008	0.0127441
-2.114122e-008	0.0193848
-2.111622e-008	0.0163086
-2.109122e-008	0.0242676
-2.106622e-008	0.0415527
-2.104122e-008	0.0417969
-2.101622e-008	0.0252686
-2.099122e-008	0.0197754
-2.096622e-008	0.0184326
-2.094122e-008	0.0114746
-2.091622e-008	0.0180176
-2.089122e-008	0.0263672
-2.086622e-008	0.025
-2.084122e-008	0.0294434
-2.081622e-008	0.0238525
-2.079122e-008	0.0173828
-2.076622e-008	0.0164063
-2.074122e-008	0.00996095
-2.071622e-008	0.0233154
-2.069122e-008	0.0270508
-2.066622e-008	0.0197754
-2.064122e-008	0.0219727
-2.061622e-008	0.00766602
-2.059122e-008	0.00786134
-2.056622e-008	0.0198486
-2.054122e-008	0.0182861
-2.051622e-008	0.0221191
-2.049122e-008	0.0219482
-2.046622e-008	0.0242432
-2.044122e-008	0.0369873
-2.041622e-008	0.0324219
-2.039122e-008	0.0223145
-2.036622e-008	0.0262695
-2.034122e-008	0.0230713
-2.031622e-008	0.0229981
-2.029122e-008	0.0283447
-2.026622e-008	0.021167
-2.024122e-008	0.0196777