# LECROYWM813Zi	51496	Waveform
# Segments	1	SegmentSize	4002
# Segment	TrigTime	TimeSinceSegment1
# #1	30-Nov-2018 17:25:04	0                 
# Time	Ampl
-5.000143e-008	0.0176025
-4.997643e-008	0.0158203
-4.995143e-008	0.0175293
-4.992643e-008	0.0177734
-4.990143e-008	0.0169434
-4.987643e-008	0.0152344
-4.985143e-008	0.0224121
-4.982643e-008	0.0314697
-4.980143e-008	0.0337891
-4.977643e-008	0.030957
-4.975143e-008	0.0122559
-4.972643e-008	0.00732423
-4.970143e-008	0.0280762
-4.967643e-008	0.0219482
-4.965143e-008	0.00925294
-4.962643e-008	0.0234863
-4.960143e-008	0.028125
-4.957643e-008	0.0214844
-4.955143e-008	0.0223389
-4.952643e-008	0.027002
-4.950143e-008	0.0270264
-4.947643e-008	0.019043
-4.945143e-008	0.0229248
-4.942643e-008	0.0242676
-4.940143e-008	0.0179443
-4.937643e-008	0.0302979
-4.935143e-008	0.0254883
-4.932643e-008	0.0158203
-4.930143e-008	0.0270996
-4.927643e-008	0.0230469
-4.925143e-008	0.023584
-4.922643e-008	0.0246582
-4.920143e-008	0.0192871
-4.917643e-008	0.0269043
-4.915143e-008	0.0166992
-4.912643e-008	0.0128174
-4.910143e-008	0.0294678
-4.907643e-008	0.0221924
-4.905143e-008	0.00488282
-4.902643e-008	0.00468751
-4.900143e-008	0.0152588
-4.897643e-008	0.0230957
-4.895143e-008	0.0228027
-4.892643e-008	0.0212891
-4.890143e-008	0.0262451
-4.887643e-008	0.0274658
-4.885143e-008	0.0131836
-4.882643e-008	0.00649415
-4.880143e-008	0.017334
-4.877643e-008	0.0206055
-4.875143e-008	0.00947266
-4.872643e-008	0.0052002
-4.870143e-008	0.011499
-4.867643e-008	0.0130615
-4.865143e-008	0.0210205
-4.862643e-008	0.0311524
-4.860143e-008	0.0271973
-4.857643e-008	0.0302734
-4.855143e-008	0.0392334
-4.852643e-008	0.0315186
-4.850143e-008	0.0158447
-4.847643e-008	0.0198486
-4.845143e-008	0.042749
-4.842643e-008	0.0418945
-4.840143e-008	0.0181397
-4.837643e-008	0.0120361
-4.835143e-008	0.0181885
-4.832643e-008	0.024707
-4.830143e-008	0.0252441
-4.827643e-008	0.0160645
-4.825143e-008	0.0203125
-4.822643e-008	0.0265625
-4.820143e-008	0.0276856
-4.817643e-008	0.0273682
-4.815143e-008	0.0053711
-4.812643e-008	0.0034668
-4.810143e-008	0.0267578
-4.807643e-008	0.0277344
-4.805143e-008	0.0297363
-4.802643e-008	0.0318848
-4.800143e-008	0.0289063
-4.797643e-008	0.0366943
-4.795143e-008	0.0231201
-4.792643e-008	0.0167969
-4.790143e-008	0.0348877
-4.787643e-008	0.0286621
-4.785143e-008	0.0250488
-4.782643e-008	0.0241699
-4.780143e-008	0.0201172
-4.777643e-008	0.0318848
-4.775143e-008	0.0173096
-4.772643e-008	0.0133789
-4.770143e-008	0.0367676
-4.767643e-008	0.0320801
-4.765143e-008	0.0209717
-4.762643e-008	0.0227051
-4.760143e-008	0.0317383
-4.757643e-008	0.0374024
-4.755143e-008	0.0304443
-4.752643e-008	0.0195313
-4.750143e-008	0.0181885
-4.747643e-008	0.0289063
-4.745143e-008	0.0312988
-4.742643e-008	0.0260986
-4.740143e-008	0.0208008
-4.737643e-008	0.0182373
-4.735143e-008	0.0177979
-4.732643e-008	0.0155518
-4.730143e-008	0.0200684
-4.727643e-008	0.021582
-4.725143e-008	0.0198731
-4.722643e-008	0.0214356
-4.720143e-008	0.025415
-4.717643e-008	0.0285889
-4.715143e-008	0.0187256
-4.712643e-008	0.0129883
-4.710143e-008	0.0201416
-4.707643e-008	0.0249024
-4.705143e-008	0.0262695
-4.702643e-008	0.0294922
-4.700143e-008	0.036499
-4.697643e-008	0.0309326
-4.695143e-008	0.0119141
-4.692643e-008	0.00803223
-4.690143e-008	0.0154785
-4.687643e-008	0.0152588
-4.685143e-008	0.0225098
-4.682643e-008	0.031958
-4.680143e-008	0.0265869
-4.677643e-008	0.0255127
-4.675143e-008	0.0240234
-4.672643e-008	0.020166
-4.670143e-008	0.0268799
-4.667643e-008	0.0241455
-4.665143e-008	0.020044
-4.662643e-008	0.0212647
-4.660143e-008	0.0166992
-4.657643e-008	0.0211426
-4.655143e-008	0.0124512
-4.652643e-008	0.0074463
-4.650143e-008	0.0356201
-4.647643e-008	0.0272705
-4.645143e-008	0.0065918
-4.642643e-008	0.0240234
-4.640143e-008	0.0315674
-4.637643e-008	0.0366943
-4.635143e-008	0.0267578
-4.632643e-008	0.00407716
-4.630143e-008	0.0130127
-4.627643e-008	0.0141846
-4.625143e-008	0.0165772
-4.622643e-008	0.0328125
-4.620143e-008	0.0302246
-4.617643e-008	0.0308838
-4.615143e-008	0.0271729
-4.612643e-008	0.0147705
-4.610143e-008	0.0238281
-4.607643e-008	0.0383545
-4.605143e-008	0.0230713
-4.602643e-008	0.00629884
-4.600143e-008	0.0254639
-4.597643e-008	0.0349609
-4.595143e-008	0.0243897
-4.592643e-008	0.0177002
-4.590143e-008	0.00837403
-4.587643e-008	0.0162842
-4.585143e-008	0.0282227
-4.582643e-008	0.022876
-4.580143e-008	0.0257568
-4.577643e-008	0.0295654
-4.575143e-008	0.0107178
-4.572643e-008	-0.00207519
-4.570143e-008	0.0102051
-4.567643e-008	0.0224365
-4.565143e-008	0.0245606
-4.562643e-008	0.0154785
-4.560143e-008	0.0156006
-4.557643e-008	0.0258057
-4.555143e-008	0.00615235
-4.552643e-008	0.00031739
-4.550143e-008	0.0248047
-4.547643e-008	0.0184082
-4.545143e-008	0.00878907
-4.542643e-008	0.0190918
-4.540143e-008	0.0297363
-4.537643e-008	0.0355469
-4.535143e-008	0.0269043
-4.532643e-008	0.0278809
-4.530143e-008	0.0306397
-4.527643e-008	0.0167725
-4.525143e-008	0.0205322
-4.522643e-008	0.0264893
-4.520143e-008	0.0200928
-4.517643e-008	0.0282959
-4.515143e-008	0.0239258
-4.512643e-008	0.00905762
-4.510143e-008	0.0177979
-4.507643e-008	0.0296875
-4.505143e-008	0.0384033
-4.502643e-008	0.0390381
-4.500143e-008	0.0327637
-4.497643e-008	0.0361572
-4.495143e-008	0.0309082
-4.492643e-008	0.0202149
-4.490143e-008	0.014502
-4.487643e-008	0.0163574
-4.485143e-008	0.0272705
-4.482643e-008	0.0234375
-4.480143e-008	0.0183838
-4.477643e-008	0.0212891
-4.475143e-008	0.0203369
-4.472643e-008	0.0258789
-4.470143e-008	0.0260254
-4.467643e-008	0.020166
-4.465143e-008	0.0175537
-4.462643e-008	0.0212891
-4.460143e-008	0.0319092
-4.457643e-008	0.0292969
-4.455143e-008	0.0203125
-4.452643e-008	0.0154785
-4.450143e-008	0.0185791
-4.447643e-008	0.0236572
-4.445143e-008	0.0157471
-4.442643e-008	0.0257568
-4.440143e-008	0.0391358
-4.437643e-008	0.024585
-4.435143e-008	0.016626
-4.432643e-008	0.0167481
-4.430143e-008	0.0231934
-4.427643e-008	0.0317383
-4.425143e-008	0.0131104
-4.422643e-008	0.00180665
-4.420143e-008	0.014624
-4.417643e-008	0.021582
-4.415143e-008	0.0245606
-4.412643e-008	0.0209961
-4.410143e-008	0.0149902
-4.407643e-008	0.0202393
-4.405143e-008	0.0287598
-4.402643e-008	0.0279297
-4.400143e-008	0.0108887
-4.397643e-008	0.00427247
-4.395143e-008	0.0172852
-4.392643e-008	0.0205078
-4.390143e-008	0.0250488
-4.387643e-008	0.0310059
-4.385143e-008	0.0237061
-4.382643e-008	0.0176025
-4.380143e-008	0.0153565
-4.377643e-008	0.0171875
-4.375143e-008	0.0107422
-4.372643e-008	0.0119141
-4.370143e-008	0.0292236
-4.367643e-008	0.0213623
-4.365143e-008	0.0155274
-4.362643e-008	0.0207275
-4.360143e-008	0.0157227
-4.357643e-008	0.0269043
-4.355143e-008	0.0278076
-4.352643e-008	0.0170166
-4.350143e-008	0.0209717
-4.347643e-008	0.0180176
-4.345143e-008	0.0237061
-4.342643e-008	0.0280518
-4.340143e-008	0.012085
-4.337643e-008	0.0171143
-4.335143e-008	0.0308106
-4.332643e-008	0.0251709
-4.330143e-008	0.0187012
-4.327643e-008	0.0202149
-4.325143e-008	0.0222656
-4.322643e-008	0.0206055
-4.320143e-008	0.0258301
-4.317643e-008	0.0326172
-4.315143e-008	0.0270508
-4.312643e-008	0.0223633
-4.310143e-008	0.0219971
-4.307643e-008	0.0180176
-4.305143e-008	0.0196289
-4.302643e-008	0.0187988
-4.300143e-008	0.015332
-4.297643e-008	0.0239258
-4.295143e-008	0.0210449
-4.292643e-008	0.0242188
-4.290143e-008	0.032544
-4.287643e-008	0.0134766
-4.285143e-008	0.0196533
-4.282643e-008	0.0324463
-4.280143e-008	0.0200195
-4.277643e-008	0.0230225
-4.275143e-008	0.0215576
-4.272643e-008	0.0119141
-4.270143e-008	0.0154541
-4.267643e-008	0.0223877
-4.265143e-008	0.0187744
-4.262643e-008	0.0178467
-4.260143e-008	0.0333252
-4.257643e-008	0.027417
-4.255143e-008	0.00944825
-4.252643e-008	0.0172852
-4.250143e-008	0.023999
-4.247643e-008	0.0216065
-4.245143e-008	0.0223633
-4.242643e-008	0.0206299
-4.240143e-008	0.0320313
-4.237643e-008	0.0376221
-4.235143e-008	0.0197998
-4.232643e-008	0.0142334
-4.230143e-008	0.0185791
-4.227643e-008	0.0269287
-4.225143e-008	0.0373047
-4.222643e-008	0.0313721
-4.220143e-008	0.0299561
-4.217643e-008	0.027417
-4.215143e-008	0.0107178
-4.212643e-008	0.023877
-4.210143e-008	0.0474854
-4.207643e-008	0.0340332
-4.205143e-008	0.0256104
-4.202643e-008	0.0277832
-4.200143e-008	0.0209961
-4.197643e-008	0.0244629
-4.195143e-008	0.0289307
-4.192643e-008	0.0268799
-4.190143e-008	0.0161865
-4.187643e-008	0.0149902
-4.185143e-008	0.022168
-4.182643e-008	0.0190918
-4.180143e-008	0.0296631
-4.177643e-008	0.0262451
-4.175143e-008	0.0156494
-4.172643e-008	0.0304443
-4.170143e-008	0.0265137
-4.167643e-008	0.0148438
-4.165143e-008	0.01521
-4.162643e-008	0.0223877
-4.160143e-008	0.0369873
-4.157643e-008	0.0232178
-4.155143e-008	0.0106201
-4.152643e-008	0.0275147
-4.150143e-008	0.0323242
-4.147643e-008	0.0283936
-4.145143e-008	0.021167
-4.142643e-008	0.0134766
-4.140143e-008	0.0167725
-4.137643e-008	0.0128174
-4.135143e-008	0.0126221
-4.132643e-008	0.0231445
-4.130143e-008	0.0266846
-4.127643e-008	0.0244629
-4.125143e-008	0.0197022
-4.122643e-008	0.012793
-4.120143e-008	0.0135498
-4.117643e-008	0.0295899
-4.115143e-008	0.0362549
-4.112643e-008	0.0226074
-4.110143e-008	0.0184326
-4.107643e-008	0.0301025
-4.105143e-008	0.0313477
-4.102643e-008	0.0147461
-4.100143e-008	0.0111816
-4.097643e-008	0.0178467
-4.095143e-008	0.00314942
-4.092643e-008	0.00573731
-4.090143e-008	0.0320801
-4.087643e-008	0.0259766
-4.085143e-008	0.0212402
-4.082643e-008	0.0342529
-4.080143e-008	0.0312012
-4.077643e-008	0.0354492
-4.075143e-008	0.0334473
-4.072643e-008	0.0204346
-4.070143e-008	0.0235352
-4.067643e-008	0.0254395
-4.065143e-008	0.024585
-4.062643e-008	0.0217041
-4.060143e-008	0.0215576
-4.057643e-008	0.0300537
-4.055143e-008	0.0289307
-4.052643e-008	0.0241455
-4.050143e-008	0.0258545
-4.047643e-008	0.0219727
-4.045143e-008	0.014502
-4.042643e-008	0.0222168
-4.040143e-008	0.0338135
-4.037643e-008	0.0237061
-4.035143e-008	0.00642091
-4.032643e-008	0.015625
-4.030143e-008	0.0291016
-4.027643e-008	0.0190918
-4.025143e-008	0.0192871
-4.022643e-008	0.0233154
-4.020143e-008	0.0243897
-4.017643e-008	0.027124
-4.015143e-008	0.00500489
-4.012643e-008	0.00715333
-4.010143e-008	0.0302002
-4.007643e-008	0.0205078
-4.005143e-008	0.0123779
-4.002643e-008	0.0154785
-4.000143e-008	0.0261231
-3.997643e-008	0.0405518
-3.995143e-008	0.030957
-3.992643e-008	0.0102539
-3.990143e-008	0.0071045
-3.987643e-008	0.0212647
-3.985143e-008	0.0214111
-3.982643e-008	0.0114014
-3.980143e-008	0.0222412
-3.977643e-008	0.0311035
-3.975143e-008	0.0327149
-3.972643e-008	0.0386475
-3.970143e-008	0.0268799
-3.967643e-008	0.0151367
-3.965143e-008	0.0165039
-3.962643e-008	0.0143311
-3.960143e-008	0.0269775
-3.957643e-008	0.0385498
-3.955143e-008	0.0217774
-3.952643e-008	0.0155029
-3.950143e-008	0.0224365
-3.947643e-008	0.0179443
-3.945143e-008	0.0210205
-3.942643e-008	0.0203857
-3.940143e-008	0.0131348
-3.937643e-008	0.0232178
-3.935143e-008	0.030127
-3.932643e-008	0.0240723
-3.930143e-008	0.0160645
-3.927643e-008	0.0253662
-3.925143e-008	0.0430908
-3.922643e-008	0.0270752
-3.920143e-008	0.0182373
-3.917643e-008	0.0289063
-3.915143e-008	0.00964356
-3.912643e-008	0.00490723
-3.910143e-008	0.0300049
-3.907643e-008	0.0376709
-3.905143e-008	0.0284668
-3.902643e-008	0.0144287
-3.900143e-008	0.0134277
-3.897643e-008	0.0215088
-3.895143e-008	0.0222168
-3.892643e-008	0.0283203
-3.890143e-008	0.0289063
-3.887643e-008	0.0182617
-3.885143e-008	0.0136231
-3.882643e-008	0.00395509
-3.880143e-008	0.00473634
-3.877643e-008	0.026709
-3.875143e-008	0.015625
-3.872643e-008	0.00187989
-3.870143e-008	0.0233154
-3.867643e-008	0.0181152
-3.865143e-008	0.0136963
-3.862643e-008	0.0284668
-3.860143e-008	0.0198731
-3.857643e-008	0.0168213
-3.855143e-008	0.0197754
-3.852643e-008	0.0199951
-3.850143e-008	0.0323486
-3.847643e-008	0.0332275
-3.845143e-008	0.0121338
-3.842643e-008	0.00300294
-3.840143e-008	0.0239258
-3.837643e-008	0.0320557
-3.835143e-008	0.0170899
-3.832643e-008	0.0170654
-3.830143e-008	0.0285156
-3.827643e-008	0.0324463
-3.825143e-008	0.0298584
-3.822643e-008	0.0255859
-3.820143e-008	0.0295654
-3.817643e-008	0.0367676
-3.815143e-008	0.0166992
-3.812643e-008	0.00949708
-3.810143e-008	0.0324951
-3.807643e-008	0.0130371
-3.805143e-008	0.00227052
-3.802643e-008	0.031665
-3.800143e-008	0.0276367
-3.797643e-008	0.023584
-3.795143e-008	0.0292969
-3.792643e-008	0.0193604
-3.790143e-008	0.020044
-3.787643e-008	0.0168213
-3.785143e-008	0.0143066
-3.782643e-008	0.0177979
-3.780143e-008	0.0193848
-3.777643e-008	0.02854
-3.775143e-008	0.0167236
-3.772643e-008	0.00993653
-3.770143e-008	0.0313233
-3.767643e-008	0.0319092
-3.765143e-008	0.0232666
-3.762643e-008	0.0176514
-3.760143e-008	0.00781251
-3.757643e-008	0.00305177
-3.755143e-008	0.0043213
-3.752643e-008	0.0231201
-3.750143e-008	0.0323486
-3.747643e-008	0.0196289
-3.745143e-008	0.0145996
-3.742643e-008	0.0149902
-3.740143e-008	0.025293
-3.737643e-008	0.0406983
-3.735143e-008	0.02854
-3.732643e-008	0.00893555
-3.730143e-008	0.0207275
-3.727643e-008	0.0310059
-3.725143e-008	0.022168
-3.722643e-008	0.0217529
-3.720143e-008	0.0258301
-3.717643e-008	0.0265137
-3.715143e-008	0.0195557
-3.712643e-008	0.0155518
-3.710143e-008	0.0209717
-3.707643e-008	0.0193848
-3.705143e-008	0.0279053
-3.702643e-008	0.0368408
-3.700143e-008	0.0314453
-3.697643e-008	0.0358154
-3.695143e-008	0.0201416
-3.692643e-008	0.00217286
-3.690143e-008	0.0220215
-3.687643e-008	0.0155518
-3.685143e-008	-0.00668945
-3.682643e-008	0.00820313
-3.680143e-008	0.0249512
-3.677643e-008	0.0286377
-3.675143e-008	0.0281494
-3.672643e-008	0.0233399
-3.670143e-008	0.022168
-3.667643e-008	0.0193359
-3.665143e-008	0.0185059
-3.662643e-008	0.026709
-3.660143e-008	0.0202637
-3.657643e-008	0.0124512
-3.655143e-008	0.0222656
-3.652643e-008	0.023877
-3.650143e-008	0.0253906
-3.647643e-008	0.0251221
-3.645143e-008	0.023169
-3.642643e-008	0.0315918
-3.640143e-008	0.0267822
-3.637643e-008	0.0279785
-3.635143e-008	0.0367188
-3.632643e-008	0.0257813
-3.630143e-008	0.0194336
-3.627643e-008	0.0214356
-3.625143e-008	0.0205078
-3.622643e-008	0.0198486
-3.620143e-008	0.0197754
-3.617643e-008	0.0281494
-3.615143e-008	0.0300537
-3.612643e-008	0.0180176
-3.610143e-008	0.0182129
-3.607643e-008	0.026416
-3.605143e-008	0.0305664
-3.602643e-008	0.0253418
-3.600143e-008	0.0157715
-3.597643e-008	0.0198975
-3.595143e-008	0.0183838
-3.592643e-008	0.0143555
-3.590143e-008	0.0225098
-3.587643e-008	0.0230713
-3.585143e-008	0.0175293
-3.582643e-008	0.0131104
-3.580143e-008	0.0167481
-3.577643e-008	0.0200684
-3.575143e-008	0.0126953
-3.572643e-008	0.0164551
-3.570143e-008	0.0200195
-3.567643e-008	0.0126465
-3.565143e-008	0.0201416
-3.562643e-008	0.0253906
-3.560143e-008	0.02229
-3.557643e-008	0.0280518
-3.555143e-008	0.0188965
-3.552643e-008	0.0145264
-3.550143e-008	0.0240479
-3.547643e-008	0.0212891
-3.545143e-008	0.0291504
-3.542643e-008	0.0304688
-3.540143e-008	0.0240234
-3.537643e-008	0.0293701
-3.535143e-008	0.0184082
-3.532643e-008	0.0135254
-3.530143e-008	0.0195801
-3.527643e-008	0.0126709
-3.525143e-008	0.0105957
-3.522643e-008	0.015332
-3.520143e-008	0.025415
-3.517643e-008	0.030249
-3.515143e-008	0.0175293
-3.512643e-008	0.0162354
-3.510143e-008	0.0273193
-3.507643e-008	0.0282227
-3.505143e-008	0.0264404
-3.502643e-008	0.0286621
-3.500143e-008	0.041919
-3.497643e-008	0.0458984
-3.495143e-008	0.0223877
-3.492643e-008	0.0150879
-3.490143e-008	0.0245606
-3.487643e-008	0.020166
-3.485143e-008	0.0233399
-3.482643e-008	0.026709
-3.480143e-008	0.0185547
-3.477643e-008	0.02229
-3.475143e-008	0.0225586
-3.472643e-008	0.0167725
-3.470143e-008	0.0206055
-3.467643e-008	0.0248047
-3.465143e-008	0.0312744
-3.462643e-008	0.0259277
-3.460143e-008	0.0151611
-3.457643e-008	0.0170654
-3.455143e-008	0.01521
-3.452643e-008	0.0196777
-3.450143e-008	0.023999
-3.447643e-008	0.0158447
-3.445143e-008	0.0228516
-3.442643e-008	0.0298584
-3.440143e-008	0.0189941
-3.437643e-008	0.0164063
-3.435143e-008	0.0186524
-3.432643e-008	0.0155029
-3.430143e-008	0.0198242
-3.427643e-008	0.0264649
-3.425143e-008	0.0301514
-3.422643e-008	0.0310547
-3.420143e-008	0.0310547
-3.417643e-008	0.0333008
-3.415143e-008	0.0238281
-3.412643e-008	0.0136231
-3.410143e-008	0.0236816
-3.407643e-008	0.0282715
-3.405143e-008	0.016919
-3.402643e-008	0.0165039
-3.400143e-008	0.0256348
-3.397643e-008	0.0315674
-3.395143e-008	0.0196045
-3.392643e-008	0.0052002
-3.390143e-008	0.025
-3.387643e-008	0.0375244
-3.385143e-008	0.0227783
-3.382643e-008	0.0134277
-3.380143e-008	0.0190918
-3.377643e-008	0.0251465
-3.375143e-008	0.0038086
-3.372643e-008	0.00153809
-3.370143e-008	0.0222656
-3.367643e-008	0.0204102
-3.365143e-008	0.0302002
-3.362643e-008	0.0293457
-3.360143e-008	0.0186768
-3.357643e-008	0.0281494
-3.355143e-008	0.0179688
-3.352643e-008	0.0189697
-3.350143e-008	0.0272705
-3.347643e-008	0.0151123
-3.345143e-008	0.0208252
-3.342643e-008	0.0177979
-3.340143e-008	0.00937501
-3.337643e-008	0.0152588
-3.335143e-008	0.0122315
-3.332643e-008	0.0159668
-3.330143e-008	0.0186279
-3.327643e-008	0.0210693
-3.325143e-008	0.0280274
-3.322643e-008	0.0116455
-3.320143e-008	0.00476075
-3.317643e-008	0.0258789
-3.315143e-008	0.0266358
-3.312643e-008	0.0162109
-3.310143e-008	0.022876
-3.307643e-008	0.0198975
-3.305143e-008	0.0179199
-3.302643e-008	0.0263672
-3.300143e-008	0.0230957
-3.297643e-008	0.0218262
-3.295143e-008	0.0259033
-3.292643e-008	0.0233399
-3.290143e-008	0.0138916
-3.287643e-008	0.010083
-3.285143e-008	0.0212402
-3.282643e-008	0.0232178
-3.280143e-008	0.0179932
-3.277643e-008	0.0253662
-3.275143e-008	0.0215576
-3.272643e-008	0.0140137
-3.270143e-008	0.0231934
-3.267643e-008	0.0282471
-3.265143e-008	0.0279053
-3.262643e-008	0.0196777
-3.260143e-008	0.0174805
-3.257643e-008	0.0327149
-3.255143e-008	0.0253174
-3.252643e-008	0.0106201
-3.250143e-008	0.0161133
-3.247643e-008	0.0171875
-3.245143e-008	0.01604
-3.242643e-008	0.0216065
-3.240143e-008	0.0226807
-3.237643e-008	0.0243164
-3.235143e-008	0.027002
-3.232643e-008	0.0267334
-3.230143e-008	0.0290283
-3.227643e-008	0.0208252
-3.225143e-008	0.013208
-3.222643e-008	0.0246826
-3.220143e-008	0.0327637
-3.217643e-008	0.0246582
-3.215143e-008	0.0136719
-3.212643e-008	0.0203125
-3.210143e-008	0.0280274
-3.207643e-008	0.0227295
-3.205143e-008	0.0227783
-3.202643e-008	0.0184815
-3.200143e-008	0.0146729
-3.197643e-008	0.020166
-3.195143e-008	0.0124024
-3.192643e-008	0.00209962
-3.190143e-008	0.0135254
-3.187643e-008	0.0215088
-3.185143e-008	0.0129395
-3.182643e-008	0.0192383
-3.180143e-008	0.0350098
-3.177643e-008	0.0321289
-3.175143e-008	0.0113525
-3.172643e-008	0.00649415
-3.170143e-008	0.0209717
-3.167643e-008	0.0241455
-3.165143e-008	0.0279053
-3.162643e-008	0.019458
-3.160143e-008	0.00830079
-3.157643e-008	0.0177734
-3.155143e-008	0.0131104
-3.152643e-008	0.0206299
-3.150143e-008	0.0289551
-3.147643e-008	0.0159668
-3.145143e-008	0.0227295
-3.142643e-008	0.0152344
-3.140143e-008	0.00480958
-3.137643e-008	0.0158936
-3.135143e-008	0.0142334
-3.132643e-008	0.0181885
-3.130143e-008	0.0225098
-3.127643e-008	0.0106445
-3.125143e-008	0.00793458
-3.122643e-008	0.0177734
-3.120143e-008	0.0201416
-3.117643e-008	0.0208496
-3.115143e-008	0.0355957
-3.112643e-008	0.0360108
-3.110143e-008	0.0189941
-3.107643e-008	0.0166992
-3.105143e-008	0.023291
-3.102643e-008	0.0225342
-3.100143e-008	0.0174805
-3.097643e-008	0.023877
-3.095143e-008	0.0286865
-3.092643e-008	0.017749
-3.090143e-008	0.0163574
-3.087643e-008	0.0198975
-3.085143e-008	0.0171631
-3.082643e-008	0.0143311
-3.080143e-008	0.0123047
-3.077643e-008	0.0214356
-3.075143e-008	0.0209473
-3.072643e-008	0.0107666
-3.070143e-008	0.0251953
-3.067643e-008	0.032666
-3.065143e-008	0.0188232
-3.062643e-008	0.0205322
-3.060143e-008	0.0272949
-3.057643e-008	0.0290039
-3.055143e-008	0.035669
-3.052643e-008	0.0286133
-3.050143e-008	0.0107666
-3.047643e-008	0.0166748
-3.045143e-008	0.0275147
-3.042643e-008	0.0174316
-3.040143e-008	0.0266846
-3.037643e-008	0.0365967
-3.035143e-008	0.0148682
-3.032643e-008	0.0149414
-3.030143e-008	0.0257324
-3.027643e-008	0.0197754
-3.025143e-008	0.0208984
-3.022643e-008	0.0268311
-3.020143e-008	0.0282959
-3.017643e-008	0.0153809
-3.015143e-008	0.00947266
-3.012643e-008	0.0226563
-3.010143e-008	0.0299072
-3.007643e-008	0.0301758
-3.005143e-008	0.0248779
-3.002643e-008	0.0135254
-3.000143e-008	0.00612794
-2.997643e-008	0.0133789
-2.995143e-008	0.0238525
-2.992643e-008	0.0258057
-2.990143e-008	0.0270752
-2.987643e-008	0.0275879
-2.985143e-008	0.0249512
-2.982643e-008	0.0111572
-2.980143e-008	0.00913087
-2.977643e-008	0.0233887
-2.975143e-008	0.0170899
-2.972643e-008	0.0160645
-2.970143e-008	0.028418
-2.967643e-008	0.0238525
-2.965143e-008	0.018042
-2.962643e-008	0.0191406
-2.960143e-008	0.0186035
-2.957643e-008	0.0178223
-2.955143e-008	0.0177246
-2.952643e-008	0.021875
-2.950143e-008	0.0228272
-2.947643e-008	0.0172852
-2.945143e-008	0.0236572
-2.942643e-008	0.0304932
-2.940143e-008	0.0252197
-2.937643e-008	0.0161133
-2.935143e-008	0.00356446
-2.932643e-008	0.0161865
-2.930143e-008	0.0388672
-2.927643e-008	0.0302734
-2.925143e-008	0.0241211
-2.922643e-008	0.0309326
-2.920143e-008	0.030835
-2.917643e-008	0.0283936
-2.915143e-008	0.0245117
-2.912643e-008	0.0208984
-2.910143e-008	0.0146729
-2.907643e-008	0.0161133
-2.905143e-008	0.0294922
-2.902643e-008	0.0309082
-2.900143e-008	0.0279541
-2.897643e-008	0.035376
-2.895143e-008	0.0348633
-2.892643e-008	0.0239502
-2.890143e-008	0.0270264
-2.887643e-008	0.0328125
-2.885143e-008	0.0245361
-2.882643e-008	0.0223633
-2.880143e-008	0.0261719
-2.877643e-008	0.0232178
-2.875143e-008	0.0164551
-2.872643e-008	0.021875
-2.870143e-008	0.0250244
-2.867643e-008	0.0147461
-2.865143e-008	0.0195313
-2.862643e-008	0.018457
-2.860143e-008	0.0192383
-2.857643e-008	0.0372315
-2.855143e-008	0.032959
-2.852643e-008	0.0260742
-2.850143e-008	0.0213867
-2.847643e-008	0.00754395
-2.845143e-008	0.00656739
-2.842643e-008	0.00766602
-2.840143e-008	0.0112549
-2.837643e-008	0.0177979
-2.835143e-008	0.0113525
-2.832643e-008	0.0125977
-2.830143e-008	0.0195801
-2.827643e-008	0.0193359
-2.825143e-008	0.0281983
-2.822643e-008	0.0203613
-2.820143e-008	0.0131836
-2.817643e-008	0.0290039
-2.815143e-008	0.0200928
-2.812643e-008	0.0164551
-2.810143e-008	0.0261963
-2.807643e-008	0.0204346
-2.805143e-008	0.0218262
-2.802643e-008	0.0231445
-2.800143e-008	0.0273682
-2.797643e-008	0.0242676
-2.795143e-008	0.00278321
-2.792643e-008	0.00200196
-2.790143e-008	0.0218262
-2.787643e-008	0.0331055
-2.785143e-008	0.036377
-2.782643e-008	0.0346191
-2.780143e-008	0.0266602
-2.777643e-008	0.0250488
-2.775143e-008	0.0268066
-2.772643e-008	0.0248535
-2.770143e-008	0.0177979
-2.767643e-008	0.0125977
-2.765143e-008	0.0226807
-2.762643e-008	0.0227051
-2.760143e-008	0.0244873
-2.757643e-008	0.0305664
-2.755143e-008	0.00827637
-2.752643e-008	0.0121582
-2.750143e-008	0.0280762
-2.747643e-008	0.0159424
-2.745143e-008	0.0236328
-2.742643e-008	0.0261231
-2.740143e-008	0.0227783
-2.737643e-008	0.0274414
-2.735143e-008	0.0124024
-2.732643e-008	0.0118652
-2.730143e-008	0.0149414
-2.727643e-008	0.0133301
-2.725143e-008	0.0243408
-2.722643e-008	0.0182129
-2.720143e-008	0.0180664
-2.717643e-008	0.0324463
-2.715143e-008	0.0296143
-2.712643e-008	0.0226807
-2.710143e-008	0.0213623
-2.707643e-008	0.0255371
-2.705143e-008	0.0306885
-2.702643e-008	0.0228272
-2.700143e-008	0.0266113
-2.697643e-008	0.038916
-2.695143e-008	0.0204346
-2.692643e-008	0.00734864
-2.690143e-008	0.0154541
-2.687643e-008	0.0182617
-2.685143e-008	0.0284912
-2.682643e-008	0.0296875
-2.680143e-008	0.0236816
-2.677643e-008	0.0293213
-2.675143e-008	0.0268066
-2.672643e-008	0.0285156
-2.670143e-008	0.0330566
-2.667643e-008	0.0300049
-2.665143e-008	0.0306641
-2.662643e-008	0.0182129
-2.660143e-008	0.0159912
-2.657643e-008	0.0275147
-2.655143e-008	0.0152832
-2.652643e-008	0.0140625
-2.650143e-008	0.0227295
-2.647643e-008	0.0201172
-2.645143e-008	0.0230957
-2.642643e-008	0.0106445
-2.640143e-008	0.011084
-2.637643e-008	0.0331055
-2.635143e-008	0.0206299
-2.632643e-008	0.0115234
-2.630143e-008	0.0239258
-2.627643e-008	0.0186279
-2.625143e-008	0.0153565
-2.622643e-008	0.0192627
-2.620143e-008	0.0247315
-2.617643e-008	0.0296387
-2.615143e-008	0.0211182
-2.612643e-008	0.0182617
-2.610143e-008	0.0215576
-2.607643e-008	0.0212158
-2.605143e-008	0.0255859
-2.602643e-008	0.0267334
-2.600143e-008	0.0312744
-2.597643e-008	0.0298584
-2.595143e-008	0.00957032
-2.592643e-008	0.0154297
-2.590143e-008	0.0330322
-2.587643e-008	0.025708
-2.585143e-008	0.0321289
-2.582643e-008	0.0355225
-2.580143e-008	0.0238525
-2.577643e-008	0.0225098
-2.575143e-008	0.0158203
-2.572643e-008	0.020166
-2.570143e-008	0.028125
-2.567643e-008	0.0207275
-2.565143e-008	0.0206055
-2.562643e-008	0.0197266
-2.560143e-008	0.0230713
-2.557643e-008	0.0330078
-2.555143e-008	0.0243897
-2.552643e-008	0.013501
-2.550143e-008	0.0194336
-2.547643e-008	0.0230957
-2.545143e-008	0.0169922
-2.542643e-008	0.0187744
-2.540143e-008	0.0306397
-2.537643e-008	0.0294678
-2.535143e-008	0.0143555
-2.532643e-008	0.0191162
-2.530143e-008	0.0329834
-2.527643e-008	0.0255615
-2.525143e-008	0.0161865
-2.522643e-008	0.0149658
-2.520143e-008	0.0266113
-2.517643e-008	0.0364258
-2.515143e-008	0.0153565
-2.512643e-008	0.00412598
-2.510143e-008	0.0149658
-2.507643e-008	0.0207275
-2.505143e-008	0.0240723
-2.502643e-008	0.0187988
-2.500143e-008	0.023169
-2.497643e-008	0.0297608
-2.495143e-008	0.0160645
-2.492643e-008	0.0220947
-2.490143e-008	0.0346191
-2.487643e-008	0.0224365
-2.485143e-008	0.0242188
-2.482643e-008	0.030542
-2.480143e-008	0.0135498
-2.477643e-008	0.00732423
-2.475143e-008	0.0192871
-2.472643e-008	0.0293701
-2.470143e-008	0.0295654
-2.467643e-008	0.0194824
-2.465143e-008	0.0159424
-2.462643e-008	0.0145996
-2.460143e-008	0.0120361
-2.457643e-008	0.0142334
-2.455143e-008	0.0169678
-2.452643e-008	0.0219238
-2.450143e-008	0.0189453
-2.447643e-008	0.0204102
-2.445143e-008	0.0252197
-2.442643e-008	0.0178467
-2.440143e-008	0.0249512
-2.437643e-008	0.0314453
-2.435143e-008	0.0244629
-2.432643e-008	0.0195068
-2.430143e-008	0.0178467
-2.427643e-008	0.0332031
-2.425143e-008	0.0361328
-2.422643e-008	0.020874
-2.420143e-008	0.0244141
-2.417643e-008	0.0275635
-2.415143e-008	0.023877
-2.412643e-008	0.017627
-2.410143e-008	0.0103272
-2.407643e-008	0.0149414
-2.405143e-008	0.0134277
-2.402643e-008	0.0125
-2.400143e-008	0.0260986
-2.397643e-008	0.0362305
-2.395143e-008	0.0297608
-2.392643e-008	0.0169434
-2.390143e-008	0.0180908
-2.387643e-008	0.0155762
-2.385143e-008	0.0110107
-2.382643e-008	0.0179932
-2.380143e-008	0.018457
-2.377643e-008	0.0178223
-2.375143e-008	0.0069336
-2.372643e-008	0.00349122
-2.370143e-008	0.02771
-2.367643e-008	0.0254883
-2.365143e-008	0.0129883
-2.362643e-008	0.0195557
-2.360143e-008	0.0129639
-2.357643e-008	0.0180176
-2.355143e-008	0.032251
-2.352643e-008	0.0265137
-2.350143e-008	0.0234131
-2.347643e-008	0.0162109
-2.345143e-008	0.0100098
-2.342643e-008	0.0220459
-2.340143e-008	0.0270264
-2.337643e-008	0.0164551
-2.335143e-008	-0.000830071
-2.332643e-008	0.00527345
-2.330143e-008	0.0244141
-2.327643e-008	0.0219482
-2.325143e-008	0.0222656
-2.322643e-008	0.0174561
-2.320143e-008	0.0212891
-2.317643e-008	0.0350342
-2.315143e-008	0.0178223
-2.312643e-008	0.0163086
-2.310143e-008	0.0233399
-2.307643e-008	0.00317384
-2.305143e-008	0.00490723
-2.302643e-008	0.0251709
-2.300143e-008	0.0250488
-2.297643e-008	0.0242432
-2.295143e-008	0.0303955
-2.292643e-008	0.0236816
-2.290143e-008	0.0180908
-2.287643e-008	0.0162842
-2.285143e-008	0.0164551
-2.282643e-008	0.0195068
-2.280143e-008	0.0165039
-2.277643e-008	0.0193604
-2.275143e-008	0.0166504
-2.272643e-008	0.00720216
-2.270143e-008	0.0196533
-2.267643e-008	0.0318604
-2.265143e-008	0.0177246
-2.262643e-008	0.0151856
-2.260143e-008	0.0208008
-2.257643e-008	0.0108643
-2.255143e-008	0.0271729
-2.252643e-008	0.0391113
-2.250143e-008	0.0212158
-2.247643e-008	0.0240234
-2.245143e-008	0.0325684
-2.242643e-008	0.0305908
-2.240143e-008	0.0299805
-2.237643e-008	0.025
-2.235143e-008	0.00649415
-2.232643e-008	-0.00385741
-2.230143e-008	0.0187988
-2.227643e-008	0.0283203
-2.225143e-008	0.00874024
-2.222643e-008	0.00915528
-2.220143e-008	0.0277588
-2.217643e-008	0.0229248
-2.215143e-008	0.0117432
-2.212643e-008	0.0274414
-2.210143e-008	0.0274902
-2.207643e-008	0.0122315
-2.205143e-008	0.0210449
-2.202643e-008	0.0172607
-2.200143e-008	0.0167969
-2.197643e-008	0.0320313
-2.195143e-008	0.0147705
-2.192643e-008	0.0115967
-2.190143e-008	0.0344483
-2.187643e-008	0.0322998
-2.185143e-008	0.0130127
-2.182643e-008	0.000805672
-2.180143e-008	0.0178467
-2.177643e-008	0.0275391
-2.175143e-008	0.0122803
-2.172643e-008	0.0189697
-2.170143e-008	0.0306885
-2.167643e-008	0.0280518
-2.165143e-008	0.0286865
-2.162643e-008	0.0245361
-2.160143e-008	0.0241699
-2.157643e-008	0.0322266
-2.155143e-008	0.0209229
-2.152643e-008	0.0111816
-2.150143e-008	0.017041
-2.147643e-008	0.0161621
-2.145143e-008	0.0176025
-2.142643e-008	0.0141357
-2.140143e-008	0.0179688
-2.137643e-008	0.0306641
-2.135143e-008	0.015332
-2.132643e-008	0.00600587
-2.130143e-008	0.0232422
-2.127643e-008	0.0361572
-2.125143e-008	0.0380859
-2.122643e-008	0.0328369
-2.120143e-008	0.0345947
-2.117643e-008	0.0338379
-2.115143e-008	0.0161865
-2.112643e-008	0.014624
-2.110143e-008	0.0291016
-2.107643e-008	0.028833
-2.105143e-008	0.0279541
-2.102643e-008	0.0330566
-2.100143e-008	0.0341065
-2.097643e-008	0.0355713
-2.095143e-008	0.0236084
-2.092643e-008	0.0129395
-2.090143e-008	0.0201172
-2.087643e-008	0.00942384
-2.085143e-008	0.00803223
-2.082643e-008	0.025708
-2.080143e-008	0.0244141
-2.077643e-008	0.0324707
-2.075143e-008	0.0306152
-2.072643e-008	0.019165
-2.070143e-008	0.0307861
-2.067643e-008	0.0324707
-2.065143e-008	0.0332275
-2.062643e-008	0.0289551
-2.060143e-008	0.0251221
-2.057643e-008	0.0321045
-2.055143e-008	0.0173584
-2.052643e-008	0.020166
-2.050143e-008	0.0334717
-2.047643e-008	0.0240723
-2.045143e-008	0.0211426
-2.042643e-008	0.0209961
-2.040143e-008	0.017334
-2.037643e-008	0.00854493
-2.035143e-008	0.00627442
-2.032643e-008	0.0187988
-2.030143e-008	0.017749
-2.027643e-008	0.017041
-2.025143e-008	0.0256348
-2.022643e-008	0.00903321
-2.020143e-008	-0.000561516
-2.017643e-008	0.0190186
-2.015143e-008	0.0179932