# LECROYWM813Zi	51496	Waveform
# Segments	1	SegmentSize	4002
# Segment	TrigTime	TimeSinceSegment1
# #1	30-Nov-2018 17:11:33	0                 
# Time	Ampl
-5.001772e-008	0.0214356
-4.999272e-008	0.0176514
-4.996772e-008	0.0156006
-4.994272e-008	0.0244629
-4.991772e-008	0.0154785
-4.989272e-008	0.0128174
-4.986772e-008	0.0273682
-4.984272e-008	0.0313477
-4.981772e-008	0.0256104
-4.979272e-008	0.00622559
-4.976772e-008	0.000708015
-4.974272e-008	0.0127441
-4.971772e-008	0.00773927
-4.969272e-008	0.00612794
-4.966772e-008	0.0238525
-4.964272e-008	0.0187256
-4.961772e-008	0.0022461
-4.959272e-008	0.0171875
-4.956772e-008	0.0245361
-4.954272e-008	0.0192871
-4.951772e-008	0.018457
-4.949272e-008	0.00869141
-4.946772e-008	0.0226563
-4.944272e-008	0.0345215
-4.941772e-008	0.0158691
-4.939272e-008	0.0203125
-4.936772e-008	0.0352295
-4.934272e-008	0.0270508
-4.931772e-008	0.0107178
-4.929272e-008	0.00742188
-4.926772e-008	0.0307129
-4.924272e-008	0.046167
-4.921772e-008	0.0282715
-4.919272e-008	0.0122559
-4.916772e-008	0.0170166
-4.914272e-008	0.0220215
-4.911772e-008	0.0248779
-4.909272e-008	0.0325928
-4.906772e-008	0.0326172
-4.904272e-008	0.0199219
-4.901772e-008	0.0145752
-4.899272e-008	0.0381836
-4.896772e-008	0.0438233
-4.894272e-008	0.020874
-4.891772e-008	0.0276367
-4.889272e-008	0.0212647
-4.886772e-008	0.00871583
-4.884272e-008	0.0280762
-4.881772e-008	0.0172852
-4.879272e-008	0.00930177
-4.876772e-008	0.0298828
-4.874272e-008	0.028125
-4.871772e-008	0.025415
-4.869272e-008	0.027832
-4.866772e-008	0.0213623
-4.864272e-008	0.024707
-4.861772e-008	0.0237305
-4.859272e-008	0.0143799
-4.856772e-008	0.0204834
-4.854272e-008	0.0185059
-4.851772e-008	0.011792
-4.849272e-008	0.025415
-4.846772e-008	0.0145752
-4.844272e-008	0.00327149
-4.841772e-008	0.0154297
-4.839272e-008	0.00461427
-4.836772e-008	0.0146973
-4.834272e-008	0.0317627
-4.831772e-008	0.0169434
-4.829272e-008	0.0183838
-4.826772e-008	0.0202393
-4.824272e-008	0.0207031
-4.821772e-008	0.0284668
-4.819272e-008	0.0258301
-4.816772e-008	0.0298096
-4.814272e-008	0.0331787
-4.811772e-008	0.031543
-4.809272e-008	0.0208008
-4.806772e-008	0.0137695
-4.804272e-008	0.0259033
-4.801772e-008	0.0193359
-4.799272e-008	0.0106445
-4.796772e-008	0.0212402
-4.794272e-008	0.0252686
-4.791772e-008	0.0241699
-4.789272e-008	0.0196045
-4.786772e-008	0.0136963
-4.784272e-008	0.0118408
-4.781772e-008	0.0155029
-4.779272e-008	0.0236816
-4.776772e-008	0.0226807
-4.774272e-008	0.0220215
-4.771772e-008	0.0269043
-4.769272e-008	0.0163818
-4.766772e-008	0.0187012
-4.764272e-008	0.0311035
-4.761772e-008	0.0168213
-4.759272e-008	0.0187256
-4.756772e-008	0.0268555
-4.754272e-008	0.0189941
-4.751772e-008	0.0229004
-4.749272e-008	0.018457
-4.746772e-008	0.023999
-4.744272e-008	0.0282715
-4.741772e-008	0.00690919
-4.739272e-008	0.0162842
-4.736772e-008	0.0345947
-4.734272e-008	0.0246826
-4.731772e-008	0.0185791
-4.729272e-008	0.0175049
-4.726772e-008	0.0143311
-4.724272e-008	0.0244629
-4.721772e-008	0.0326416
-4.719272e-008	0.0207764
-4.716772e-008	0.0182129
-4.714272e-008	0.0238037
-4.711772e-008	0.0169922
-4.709272e-008	0.0193359
-4.706772e-008	0.0310547
-4.704272e-008	0.0319824
-4.701772e-008	0.0272461
-4.699272e-008	0.0262207
-4.696772e-008	0.0260742
-4.694272e-008	0.0268311
-4.691772e-008	0.0239014
-4.689272e-008	0.0116699
-4.686772e-008	0.0156982
-4.684272e-008	0.0313477
-4.681772e-008	0.0227539
-4.679272e-008	0.0168213
-4.676772e-008	0.0261475
-4.674272e-008	0.0220215
-4.671772e-008	0.0242188
-4.669272e-008	0.0290039
-4.666772e-008	0.0206055
-4.664272e-008	0.0270264
-4.661772e-008	0.0278809
-4.659272e-008	0.021167
-4.656772e-008	0.0313477
-4.654272e-008	0.0259766
-4.651772e-008	0.0139649
-4.649272e-008	0.017041
-4.646772e-008	0.0217285
-4.644272e-008	0.0158203
-4.641772e-008	0.00322266
-4.639272e-008	0.0143555
-4.636772e-008	0.0217774
-4.634272e-008	0.0114502
-4.631772e-008	0.0169434
-4.629272e-008	0.0223389
-4.626772e-008	0.0321045
-4.624272e-008	0.0329102
-4.621772e-008	0.000219734
-4.619272e-008	-0.00805663
-4.616772e-008	0.0191406
-4.614272e-008	0.0289551
-4.611772e-008	0.0164551
-4.609272e-008	0.00688477
-4.606772e-008	0.0219482
-4.604272e-008	0.0374512
-4.601772e-008	0.0207275
-4.599272e-008	0.0124512
-4.596772e-008	0.0239502
-4.594272e-008	0.0153565
-4.591772e-008	0.00603028
-4.589272e-008	0.0232666
-4.586772e-008	0.0383057
-4.584272e-008	0.0290283
-4.581772e-008	0.0204834
-4.579272e-008	0.0290772
-4.576772e-008	0.0338379
-4.574272e-008	0.025
-4.571772e-008	0.0163086
-4.569272e-008	0.0214111
-4.566772e-008	0.0379639
-4.564272e-008	0.0365234
-4.561772e-008	0.0162109
-4.559272e-008	0.01604
-4.556772e-008	0.019043
-4.554272e-008	0.0074463
-4.551772e-008	0.0101074
-4.549272e-008	0.0166504
-4.546772e-008	0.0231201
-4.544272e-008	0.0293213
-4.541772e-008	0.0190918
-4.539272e-008	0.0193848
-4.536772e-008	0.0209717
-4.534272e-008	0.0115479
-4.531772e-008	0.0244141
-4.529272e-008	0.0312256
-4.526772e-008	0.02229
-4.524272e-008	0.0198486
-4.521772e-008	0.00688477
-4.519272e-008	0.00991212
-4.516772e-008	0.0206299
-4.514272e-008	0.0120606
-4.511772e-008	0.0279053
-4.509272e-008	0.0307617
-4.506772e-008	0.005542
-4.504272e-008	0.0185547
-4.501772e-008	0.0297363
-4.499272e-008	0.0190674
-4.496772e-008	0.0256836
-4.494272e-008	0.0299561
-4.491772e-008	0.0299805
-4.489272e-008	0.0203857
-4.486772e-008	0.0150635
-4.484272e-008	0.0317627
-4.481772e-008	0.0123779
-4.479272e-008	0.0043213
-4.476772e-008	0.0391846
-4.474272e-008	0.0279053
-4.471772e-008	0.0120117
-4.469272e-008	0.0264893
-4.466772e-008	0.031543
-4.464272e-008	0.0312012
-4.461772e-008	0.0102539
-4.459272e-008	-0.00236816
-4.456772e-008	0.0178711
-4.454272e-008	0.0244385
-4.451772e-008	0.0196533
-4.449272e-008	0.0201416
-4.446772e-008	0.00930177
-4.444272e-008	0.00483399
-4.441772e-008	0.0192871
-4.439272e-008	0.0240479
-4.436772e-008	0.0195313
-4.434272e-008	0.0146729
-4.431772e-008	0.0121094
-4.429272e-008	0.0229492
-4.426772e-008	0.0196777
-4.424272e-008	0.00729981
-4.421772e-008	0.0160889
-4.419272e-008	0.0240234
-4.416772e-008	0.0229004
-4.414272e-008	0.0202881
-4.411772e-008	0.0250244
-4.409272e-008	0.0291992
-4.406772e-008	0.0220947
-4.404272e-008	0.0299805
-4.401772e-008	0.0313721
-4.399272e-008	0.0198242
-4.396772e-008	0.0221436
-4.394272e-008	0.0188477
-4.391772e-008	0.0185791
-4.389272e-008	0.018042
-4.386772e-008	0.0219727
-4.384272e-008	0.0377686
-4.381772e-008	0.0219238
-4.379272e-008	0.0157227
-4.376772e-008	0.0269531
-4.374272e-008	0.0158691
-4.371772e-008	0.0200684
-4.369272e-008	0.0250977
-4.366772e-008	0.0204834
-4.364272e-008	0.020166
-4.361772e-008	0.0102051
-4.359272e-008	0.0121338
-4.356772e-008	0.0223877
-4.354272e-008	0.0239746
-4.351772e-008	0.0206543
-4.349272e-008	0.0134766
-4.346772e-008	0.0117188
-4.344272e-008	0.0177979
-4.341772e-008	0.0221191
-4.339272e-008	0.0180664
-4.336772e-008	0.0193359
-4.334272e-008	0.0236328
-4.331772e-008	0.0263916
-4.329272e-008	0.0299072
-4.326772e-008	0.0157227
-4.324272e-008	0.0165772
-4.321772e-008	0.0295166
-4.319272e-008	0.0157715
-4.316772e-008	0.0196777
-4.314272e-008	0.0384766
-4.311772e-008	0.0364746
-4.309272e-008	0.0215576
-4.306772e-008	0.0153565
-4.304272e-008	0.0221924
-4.301772e-008	0.0127441
-4.299272e-008	0.0155518
-4.296772e-008	0.0312256
-4.294272e-008	0.0170899
-4.291772e-008	0.0124512
-4.289272e-008	0.026709
-4.286772e-008	0.0286621
-4.284272e-008	0.0242432
-4.281772e-008	0.0209961
-4.279272e-008	0.0148438
-4.276772e-008	0.0103027
-4.274272e-008	0.0168457
-4.271772e-008	0.0189453
-4.269272e-008	0.0157959
-4.266772e-008	0.0255371
-4.264272e-008	0.0296387
-4.261772e-008	0.0236816
-4.259272e-008	0.0241211
-4.256772e-008	0.0204346
-4.254272e-008	0.0172852
-4.251772e-008	0.0151367
-4.249272e-008	0.00620118
-4.246772e-008	0.0181885
-4.244272e-008	0.0305664
-4.241772e-008	0.0151123
-4.239272e-008	0.0185791
-4.236772e-008	0.038501
-4.234272e-008	0.032666
-4.231772e-008	0.0184326
-4.229272e-008	0.017041
-4.226772e-008	0.0261963
-4.224272e-008	0.0226563
-4.221772e-008	-9.76488e-005
-4.219272e-008	0.00512696
-4.216772e-008	0.0276611
-4.214272e-008	0.0215332
-4.211772e-008	0.0106201
-4.209272e-008	0.0141846
-4.206772e-008	0.0256592
-4.204272e-008	0.0369385
-4.201772e-008	0.0151611
-4.199272e-008	-0.00541991
-4.196772e-008	0.0246582
-4.194272e-008	0.0338867
-4.191772e-008	0.0131836
-4.189272e-008	0.0101563
-4.186772e-008	0.0143311
-4.184272e-008	0.0270752
-4.181772e-008	0.0144043
-4.179272e-008	0.00756837
-4.176772e-008	0.033374
-4.174272e-008	0.0252686
-4.171772e-008	0.020044
-4.169272e-008	0.0307129
-4.166772e-008	0.0259766
-4.164272e-008	0.0283936
-4.161772e-008	0.0192627
-4.159272e-008	0.00671387
-4.156772e-008	0.00908204
-4.154272e-008	0.0144287
-4.151772e-008	0.0295166
-4.149272e-008	0.0286133
-4.146772e-008	0.0155029
-4.144272e-008	0.0226074
-4.141772e-008	0.0205078
-4.139272e-008	0.0101807
-4.136772e-008	0.0196289
-4.134272e-008	0.0314209
-4.131772e-008	0.0331543
-4.129272e-008	0.0244873
-4.126772e-008	0.017627
-4.124272e-008	0.0204834
-4.121772e-008	0.0183838
-4.119272e-008	0.0206543
-4.116772e-008	0.0231201
-4.114272e-008	0.0187744
-4.111772e-008	0.0329102
-4.109272e-008	0.029834
-4.106772e-008	0.00732423
-4.104272e-008	0.0149414
-4.101772e-008	0.0143311
-4.099272e-008	0.0113525
-4.096772e-008	0.0214844
-4.094272e-008	0.0123779
-4.091772e-008	0.0193604
-4.089272e-008	0.0317627
-4.086772e-008	0.0289307
-4.084272e-008	0.0241455
-4.081772e-008	0.0091797
-4.079272e-008	0.0144775
-4.076772e-008	0.0300781
-4.074272e-008	0.0205322
-4.071772e-008	0.0140625
-4.069272e-008	0.0273682
-4.066772e-008	0.0350586
-4.064272e-008	0.0255615
-4.061772e-008	0.0143311
-4.059272e-008	0.0146484
-4.056772e-008	0.0220215
-4.054272e-008	0.0153076
-4.051772e-008	0.0126465
-4.049272e-008	0.0295654
-4.046772e-008	0.0335938
-4.044272e-008	0.0240479
-4.041772e-008	0.0172607
-4.039272e-008	0.0223145
-4.036772e-008	0.0326416
-4.034272e-008	0.0256348
-4.031772e-008	0.0208252
-4.029272e-008	0.0239258
-4.026772e-008	0.0244873
-4.024272e-008	0.0326904
-4.021772e-008	0.0170166
-4.019272e-008	-0.00319823
-4.016772e-008	0.0201416
-4.014272e-008	0.0320557
-4.011772e-008	0.0210205
-4.009272e-008	0.0217774
-4.006772e-008	0.0284912
-4.004272e-008	0.0331543
-4.001772e-008	0.0200684
-3.999272e-008	0.0165039
-3.996772e-008	0.026709
-3.994272e-008	0.0238037
-3.991772e-008	0.0292969
-3.989272e-008	0.0328858
-3.986772e-008	0.0286621
-3.984272e-008	0.0270996
-3.981772e-008	0.020459
-3.979272e-008	0.0237793
-3.976772e-008	0.0313965
-3.974272e-008	0.0235596
-3.971772e-008	0.0148926
-3.969272e-008	0.0176025
-3.966772e-008	0.0240479
-3.964272e-008	0.0307617
-3.961772e-008	0.0249512
-3.959272e-008	0.0139404
-3.956772e-008	0.0228027
-3.954272e-008	0.024707
-3.951772e-008	0.0197022
-3.949272e-008	0.0256348
-3.946772e-008	0.0272949
-3.944272e-008	0.0276856
-3.941772e-008	0.00747071
-3.939272e-008	-0.00300292
-3.936772e-008	0.0288086
-3.934272e-008	0.0332764
-3.931772e-008	0.0161377
-3.929272e-008	0.0206787
-3.926772e-008	0.0294678
-3.924272e-008	0.0296875
-3.921772e-008	0.0183106
-3.919272e-008	0.0188965
-3.916772e-008	0.0234131
-3.914272e-008	0.0121094
-3.911772e-008	0.0148438
-3.909272e-008	0.0214111
-3.906772e-008	0.0229981
-3.904272e-008	0.0357422
-3.901772e-008	0.0299805
-3.899272e-008	0.016919
-3.896772e-008	0.0218018
-3.894272e-008	0.0217529
-3.891772e-008	0.0234863
-3.889272e-008	0.0311768
-3.886772e-008	0.0350098
-3.884272e-008	0.0297119
-3.881772e-008	0.0143799
-3.879272e-008	0.0155029
-3.876772e-008	0.0293945
-3.874272e-008	0.0327149
-3.871772e-008	0.0249024
-3.869272e-008	0.0150147
-3.866772e-008	0.0136719
-3.864272e-008	0.0197754
-3.861772e-008	0.0225098
-3.859272e-008	0.0216797
-3.856772e-008	0.0302979
-3.854272e-008	0.0235596
-3.851772e-008	0.00568848
-3.849272e-008	0.0150391
-3.846772e-008	0.0202637
-3.844272e-008	0.0157227
-3.841772e-008	0.0183594
-3.839272e-008	0.0160889
-3.836772e-008	0.0173584
-3.834272e-008	0.0155029
-3.831772e-008	0.0135498
-3.829272e-008	0.0181885
-3.826772e-008	0.0183594
-3.824272e-008	0.0218018
-3.821772e-008	0.0213379
-3.819272e-008	0.0224609
-3.816772e-008	0.0302734
-3.814272e-008	0.0215332
-3.811772e-008	0.0145508
-3.809272e-008	0.02146
-3.806772e-008	0.0310059
-3.804272e-008	0.0311279
-3.801772e-008	0.0136475
-3.799272e-008	0.0216553
-3.796772e-008	0.036084
-3.794272e-008	0.0165527
-3.791772e-008	0.0140137
-3.789272e-008	0.0159668
-3.786772e-008	0.0124024
-3.784272e-008	0.0233887
-3.781772e-008	0.0173828
-3.779272e-008	0.0205322
-3.776772e-008	0.0203613
-3.774272e-008	0.000537117
-3.771772e-008	0.0147217
-3.769272e-008	0.0270508
-3.766772e-008	0.0205322
-3.764272e-008	0.0146973
-3.761772e-008	-0.00617675
-3.759272e-008	-0.000341789
-3.756772e-008	0.0245361
-3.754272e-008	0.0225098
-3.751772e-008	0.0270264
-3.749272e-008	0.0287598
-3.746772e-008	0.0144043
-3.744272e-008	0.0148193
-3.741772e-008	0.00976563
-3.739272e-008	0.0101318
-3.736772e-008	0.0167236
-3.734272e-008	0.0120361
-3.731772e-008	0.0230469
-3.729272e-008	0.0158203
-3.726772e-008	0.00488282
-3.724272e-008	0.021582
-3.721772e-008	0.0165527
-3.719272e-008	0.0114014
-3.716772e-008	0.0167236
-3.714272e-008	0.0129639
-3.711772e-008	0.0226563
-3.709272e-008	0.0231201
-3.706772e-008	0.0127686
-3.704272e-008	0.0250733
-3.701772e-008	0.0313477
-3.699272e-008	0.0229004
-3.696772e-008	0.0254395
-3.694272e-008	0.0221436
-3.691772e-008	0.00861817
-3.689272e-008	0.00705567
-3.686772e-008	0.0172363
-3.684272e-008	0.0201416
-3.681772e-008	0.0162598
-3.679272e-008	0.02229
-3.676772e-008	0.0294922
-3.674272e-008	0.0231445
-3.671772e-008	0.0102539
-3.669272e-008	0.0111816
-3.666772e-008	0.023877
-3.664272e-008	0.021582
-3.661772e-008	0.0112061
-3.659272e-008	0.0160645
-3.656772e-008	0.027124
-3.654272e-008	0.0317383
-3.651772e-008	0.0208252
-3.649272e-008	7.45058e-009
-3.646772e-008	0.00842286
-3.644272e-008	0.0227783
-3.641772e-008	0.00700684
-3.639272e-008	0.00998536
-3.636772e-008	0.0283447
-3.634272e-008	0.0251221
-3.631772e-008	0.0216065
-3.629272e-008	0.0167236
-3.626772e-008	0.011499
-3.624272e-008	0.0260986
-3.621772e-008	0.0250244
-3.619272e-008	0.00678712
-3.616772e-008	0.0126465
-3.614272e-008	0.0227051
-3.611772e-008	0.0309082
-3.609272e-008	0.0293457
-3.606772e-008	0.0156982
-3.604272e-008	0.0290527
-3.601772e-008	0.0293457
-3.599272e-008	0.0113525
-3.596772e-008	0.0214844
-3.594272e-008	0.0236572
-3.591772e-008	0.0148926
-3.589272e-008	0.0253418
-3.586772e-008	0.0319092
-3.584272e-008	0.0168457
-3.581772e-008	-0.000415032
-3.579272e-008	0.00585938
-3.576772e-008	0.0202637
-3.574272e-008	0.0132568
-3.571772e-008	0.00285645
-3.569272e-008	0.0118408
-3.566772e-008	0.0238037
-3.564272e-008	0.0186524
-3.561772e-008	0.0143799
-3.559272e-008	0.0251709
-3.556772e-008	0.0209229
-3.554272e-008	0.0154297
-3.551772e-008	0.0319336
-3.549272e-008	0.0307373
-3.546772e-008	0.0246094
-3.544272e-008	0.033374
-3.541772e-008	0.0246582
-3.539272e-008	0.0193115
-3.536772e-008	0.0182617
-3.534272e-008	0.00253907
-3.531772e-008	0.00708009
-3.529272e-008	0.0192627
-3.526772e-008	0.0182861
-3.524272e-008	0.0157227
-3.521772e-008	0.0119385
-3.519272e-008	0.0204834
-3.516772e-008	0.0266113
-3.514272e-008	0.0207764
-3.511772e-008	0.0227295
-3.509272e-008	0.0228516
-3.506772e-008	0.0273682
-3.504272e-008	0.0282715
-3.501772e-008	0.00773927
-3.499272e-008	0.00837403
-3.496772e-008	0.020459
-3.494272e-008	0.0140137
-3.491772e-008	0.0166992
-3.489272e-008	0.0154541
-3.486772e-008	0.0176025
-3.484272e-008	0.03125
-3.481772e-008	0.0227539
-3.479272e-008	0.0176025
-3.476772e-008	0.0232178
-3.474272e-008	0.0215088
-3.471772e-008	0.0275147
-3.469272e-008	0.029419
-3.466772e-008	0.0183594
-3.464272e-008	0.0182861
-3.461772e-008	0.0246582
-3.459272e-008	0.019165
-3.456772e-008	0.0157959
-3.454272e-008	0.0199463
-3.451772e-008	0.0268799
-3.449272e-008	0.037207
-3.446772e-008	0.0387207
-3.444272e-008	0.0248535
-3.441772e-008	0.0209473
-3.439272e-008	0.0262207
-3.436772e-008	0.0101318
-3.434272e-008	0.00949708
-3.431772e-008	0.0246338
-3.429272e-008	0.0155518
-3.426772e-008	0.0151611
-3.424272e-008	0.0235352
-3.421772e-008	0.0178223
-3.419272e-008	0.0129639
-3.416772e-008	0.00993653
-3.414272e-008	0.00791016
-3.411772e-008	0.0176758
-3.409272e-008	0.026001
-3.406772e-008	0.026416
-3.404272e-008	0.029541
-3.401772e-008	0.0257568
-3.399272e-008	0.0245117
-3.396772e-008	0.0308106
-3.394272e-008	0.0218994
-3.391772e-008	0.0083252
-3.389272e-008	0.0111328
-3.386772e-008	0.0217774
-3.384272e-008	0.0309326
-3.381772e-008	0.0216797
-3.379272e-008	0.00295411
-3.376772e-008	0.00949708
-3.374272e-008	0.0177979
-3.371772e-008	0.0152344
-3.369272e-008	0.0052002
-3.366772e-008	-0.000512688
-3.364272e-008	0.0179932
-3.361772e-008	0.0128174
-3.359272e-008	0.00788575
-3.356772e-008	0.0270508
-3.354272e-008	0.0212891
-3.351772e-008	0.0212647
-3.349272e-008	0.0284912
-3.346772e-008	0.0244141
-3.344272e-008	0.0217041
-3.341772e-008	0.0104736
-3.339272e-008	0.00983887
-3.336772e-008	0.0173584
-3.334272e-008	0.0194336
-3.331772e-008	0.0307617
-3.329272e-008	0.0385498
-3.326772e-008	0.0340088
-3.324272e-008	0.0257813
-3.321772e-008	0.0153076
-3.319272e-008	0.0118897
-3.316772e-008	0.0198975
-3.314272e-008	0.0248291
-3.311772e-008	0.0187744
-3.309272e-008	0.00800782
-3.306772e-008	0.00913087
-3.304272e-008	0.0223145
-3.301772e-008	0.0227539
-3.299272e-008	0.0206299
-3.296772e-008	0.0221436
-3.294272e-008	0.00505372
-3.291772e-008	0.00725098
-3.289272e-008	0.0303711
-3.286772e-008	0.0190918
-3.284272e-008	0.00939942
-3.281772e-008	0.0198731
-3.279272e-008	0.0185059
-3.276772e-008	0.0203369
-3.274272e-008	0.0158447
-3.271772e-008	0.00270997
-3.269272e-008	0.00915528
-3.266772e-008	0.027417
-3.264272e-008	0.0328125
-3.261772e-008	0.0188965
-3.259272e-008	0.016919
-3.256772e-008	0.0290527
-3.254272e-008	0.026416
-3.251772e-008	0.0199707
-3.249272e-008	0.0183106
-3.246772e-008	0.0196533
-3.244272e-008	0.0236816
-3.241772e-008	0.0226074
-3.239272e-008	0.0110352
-3.236772e-008	0.00654298
-3.234272e-008	0.0290039
-3.231772e-008	0.0351318
-3.229272e-008	0.0140869
-3.226772e-008	0.0156494
-3.224272e-008	0.0237793
-3.221772e-008	0.0172363
-3.219272e-008	0.0174561
-3.216772e-008	0.0233154
-3.214272e-008	0.0236084
-3.211772e-008	0.0183594
-3.209272e-008	0.014502
-3.206772e-008	0.0192383
-3.204272e-008	0.0129883
-3.201772e-008	-0.00158691
-3.199272e-008	0.00981446
-3.196772e-008	0.02146
-3.194272e-008	0.0172852
-3.191772e-008	0.0220459
-3.189272e-008	0.020044
-3.186772e-008	0.0135254
-3.184272e-008	0.0230469
-3.181772e-008	0.0206543
-3.179272e-008	0.00888673
-3.176772e-008	0.0161377
-3.174272e-008	0.0208984
-3.171772e-008	0.0209229
-3.169272e-008	0.018457
-3.166772e-008	0.0160645
-3.164272e-008	0.0248291
-3.161772e-008	0.015332
-3.159272e-008	0.0127197
-3.156772e-008	0.0261231
-3.154272e-008	0.0192383
-3.151772e-008	0.0171631
-3.149272e-008	0.0182861
-3.146772e-008	0.0236816
-3.144272e-008	0.0401611
-3.141772e-008	0.0242432
-3.139272e-008	0.00395509
-3.136772e-008	0.0193115
-3.134272e-008	0.0223633
-3.131772e-008	0.0125
-3.129272e-008	0.0186768
-3.126772e-008	0.0143555
-3.124272e-008	0.0125488
-3.121772e-008	0.0246582
-3.119272e-008	0.0258057
-3.116772e-008	0.0175293
-3.114272e-008	0.00969239
-3.111772e-008	0.00827637
-3.109272e-008	0.00869141
-3.106772e-008	0.0205566
-3.104272e-008	0.0294434
-3.101772e-008	0.0135742
-3.099272e-008	0.0136963
-3.096772e-008	0.0294678
-3.094272e-008	0.0248779
-3.091772e-008	0.011377
-3.089272e-008	0.00788575
-3.086772e-008	0.0156006
-3.084272e-008	0.0234863
-3.081772e-008	0.0218506
-3.079272e-008	0.01875
-3.076772e-008	0.0229004
-3.074272e-008	0.0203857
-3.071772e-008	0.0136719
-3.069272e-008	0.0253174
-3.066772e-008	0.0315186
-3.064272e-008	0.0191895
-3.061772e-008	0.017041
-3.059272e-008	0.0176758
-3.056772e-008	0.0241699
-3.054272e-008	0.0326904
-3.051772e-008	0.0128174
-3.049272e-008	0.010669
-3.046772e-008	0.0290772
-3.044272e-008	0.0203369
-3.041772e-008	0.0178223
-3.039272e-008	0.0218994
-3.036772e-008	0.0153809
-3.034272e-008	0.0179688
-3.031772e-008	0.0192383
-3.029272e-008	0.0176758
-3.026772e-008	0.0217041
-3.024272e-008	0.0231934
-3.021772e-008	0.0242188
-3.019272e-008	0.0257568
-3.016772e-008	0.0192871
-3.014272e-008	0.0166992
-3.011772e-008	0.0233154
-3.009272e-008	0.0149414
-3.006772e-008	0.0139404
-3.004272e-008	0.0282227
-3.001772e-008	0.0169434
-2.999272e-008	0.0117676
-2.996772e-008	0.0247315
-2.994272e-008	0.0269287
-2.991772e-008	0.0244385
-2.989272e-008	0.018042
-2.986772e-008	0.0294678
-2.984272e-008	0.0306641
-2.981772e-008	0.00417481
-2.979272e-008	0.0114258
-2.976772e-008	0.0166504
-2.974272e-008	0.00366212
-2.971772e-008	0.0236084
-2.969272e-008	0.0287842
-2.966772e-008	0.0160889
-2.964272e-008	0.0246582
-2.961772e-008	0.0133301
-2.959272e-008	0.00173341
-2.956772e-008	0.0135498
-2.954272e-008	0.017041
-2.951772e-008	0.0291992
-2.949272e-008	0.0330811
-2.946772e-008	0.022168
-2.944272e-008	0.0245606
-2.941772e-008	0.0168213
-2.939272e-008	0.0116699
-2.936772e-008	0.0179199
-2.934272e-008	0.0203369
-2.931772e-008	0.0299805
-2.929272e-008	0.0255127
-2.926772e-008	0.0188477
-2.924272e-008	0.0315918
-2.921772e-008	0.0272461
-2.919272e-008	0.0167725
-2.916772e-008	0.0188965
-2.914272e-008	0.0173828
-2.911772e-008	0.0160889
-2.909272e-008	0.0108887
-2.906772e-008	0.0248047
-2.904272e-008	0.048291
-2.901772e-008	0.0308838
-2.899272e-008	0.0174805
-2.896772e-008	0.0164063
-2.894272e-008	0.00793458
-2.891772e-008	0.0239746
-2.889272e-008	0.0256836
-2.886772e-008	0.0116211
-2.884272e-008	0.00454102
-2.881772e-008	-0.00119628
-2.879272e-008	0.0251709
-2.876772e-008	0.0362305
-2.874272e-008	0.0174805
-2.871772e-008	0.0253906
-2.869272e-008	0.0293213
-2.866772e-008	0.022583
-2.864272e-008	0.0253418
-2.861772e-008	0.0163818
-2.859272e-008	0.0130371
-2.856772e-008	0.0253418
-2.854272e-008	0.0293213
-2.851772e-008	0.0250733
-2.849272e-008	0.0137207
-2.846772e-008	0.010083
-2.844272e-008	0.0224365
-2.841772e-008	0.012793
-2.839272e-008	0.00664063
-2.836772e-008	0.0300049
-2.834272e-008	0.0322266
-2.831772e-008	0.0210693
-2.829272e-008	0.0201172
-2.826772e-008	0.0252441
-2.824272e-008	0.0266846
-2.821772e-008	0.0144531
-2.819272e-008	0.0145752
-2.816772e-008	0.0141357
-2.814272e-008	0.0117676
-2.811772e-008	0.0237061
-2.809272e-008	0.023999
-2.806772e-008	0.0219727
-2.804272e-008	0.0197022
-2.801772e-008	0.0214356
-2.799272e-008	0.0285156
-2.796772e-008	0.0109375
-2.794272e-008	0.00754395
-2.791772e-008	0.0276367
-2.789272e-008	0.0171387
-2.786772e-008	0.00905762
-2.784272e-008	0.0268555
-2.781772e-008	0.0235596
-2.779272e-008	0.018042
-2.776772e-008	0.0184326
-2.774272e-008	0.0103027
-2.771772e-008	0.0234375
-2.769272e-008	0.0289795
-2.766772e-008	0.0179932
-2.764272e-008	0.0157471
-2.761772e-008	0.0111328
-2.759272e-008	0.0148926
-2.756772e-008	0.0250244
-2.754272e-008	0.0258057
-2.751772e-008	0.012793
-2.749272e-008	0.00944825
-2.746772e-008	0.0165283
-2.744272e-008	0.0090088
-2.741772e-008	0.0169922
-2.739272e-008	0.0248047
-2.736772e-008	0.0123535
-2.734272e-008	0.0173828
-2.731772e-008	0.0240479
-2.729272e-008	0.0192383
-2.726772e-008	0.0277344
-2.724272e-008	0.0289551
-2.721772e-008	0.011792
-2.719272e-008	0.0170654
-2.716772e-008	0.0276367
-2.714272e-008	0.0152588
-2.711772e-008	0.0110596
-2.709272e-008	0.0174072
-2.706772e-008	0.0237549
-2.704272e-008	0.0188965
-2.701772e-008	0.00234376
-2.699272e-008	0.00629884
-2.696772e-008	0.0152588
-2.694272e-008	0.0133545
-2.691772e-008	0.019751
-2.689272e-008	0.0242432
-2.686772e-008	0.0244385
-2.684272e-008	0.0228516
-2.681772e-008	0.00986329
-2.679272e-008	0.00976563
-2.676772e-008	0.0153076
-2.674272e-008	0.00720216
-2.671772e-008	0.0257813
-2.669272e-008	0.0404053
-2.666772e-008	0.0190918
-2.664272e-008	0.0166504
-2.661772e-008	0.0228027
-2.659272e-008	0.0189453
-2.656772e-008	0.0197998
-2.654272e-008	0.0181641
-2.651772e-008	0.0209717
-2.649272e-008	0.0220703
-2.646772e-008	0.0231201
-2.644272e-008	0.0251465
-2.641772e-008	0.0105713
-2.639272e-008	0.0128174
-2.636772e-008	0.0238037
-2.634272e-008	0.0110107
-2.631772e-008	0.00698243
-2.629272e-008	0.010083
-2.626772e-008	0.0145752
-2.624272e-008	0.0222412
-2.621772e-008	0.0200928
-2.619272e-008	0.0240967
-2.616772e-008	0.0285156
-2.614272e-008	0.0278809
-2.611772e-008	0.0284668
-2.609272e-008	0.0316162
-2.606772e-008	0.0315918
-2.604272e-008	0.0146973
-2.601772e-008	0.00905762
-2.599272e-008	0.0227051
-2.596772e-008	0.0244141
-2.594272e-008	0.0105957
-2.591772e-008	0.00764161
-2.589272e-008	0.0210693
-2.586772e-008	0.0249024
-2.584272e-008	0.0203125
-2.581772e-008	0.0139404
-2.579272e-008	0.0171875
-2.576772e-008	0.0304443
-2.574272e-008	0.0193848
-2.571772e-008	0.00734864
-2.569272e-008	0.019458
-2.566772e-008	0.0240234
-2.564272e-008	0.0229492
-2.561772e-008	0.0207031
-2.559272e-008	0.0150635
-2.556772e-008	0.0237061
-2.554272e-008	0.026294
-2.551772e-008	0.0242188
-2.549272e-008	0.0322754
-2.546772e-008	0.032544
-2.544272e-008	0.028833
-2.541772e-008	0.0145508
-2.539272e-008	0.00861817
-2.536772e-008	0.0263672
-2.534272e-008	0.0269775
-2.531772e-008	0.0103027
-2.529272e-008	0.000512703
-2.526772e-008	0.014917
-2.524272e-008	0.0344971
-2.521772e-008	0.0281738
-2.519272e-008	0.0193604
-2.516772e-008	0.0218506
-2.514272e-008	0.0249024
-2.511772e-008	0.011377
-2.509272e-008	-0.00327148
-2.506772e-008	0.00808106
-2.504272e-008	0.0253418
-2.501772e-008	0.0338623
-2.499272e-008	0.0245361
-2.496772e-008	0.0149902
-2.494272e-008	0.0181885
-2.491772e-008	0.017749
-2.489272e-008	0.0270264
-2.486772e-008	0.0276611
-2.484272e-008	0.0194336
-2.481772e-008	0.0202637
-2.479272e-008	0.0134033
-2.476772e-008	0.0197022
-2.474272e-008	0.0266846
-2.471772e-008	0.0173828
-2.469272e-008	0.0184326
-2.466772e-008	0.0181885
-2.464272e-008	0.0156494
-2.461772e-008	0.0237793
-2.459272e-008	0.03125
-2.456772e-008	0.0337402
-2.454272e-008	0.0263184
-2.451772e-008	0.012793
-2.449272e-008	0.0145508
-2.446772e-008	0.0228272
-2.444272e-008	0.0221436
-2.441772e-008	0.0237061
-2.439272e-008	0.023999
-2.436772e-008	0.0239746
-2.434272e-008	0.02771
-2.431772e-008	0.0268066
-2.429272e-008	0.0256836
-2.426772e-008	0.0302734
-2.424272e-008	0.0323731
-2.421772e-008	0.0231201
-2.419272e-008	0.0177734
-2.416772e-008	0.0253418
-2.414272e-008	0.0272217
-2.411772e-008	0.0187256
-2.409272e-008	0.0140137
-2.406772e-008	0.0191895
-2.404272e-008	0.0261475
-2.401772e-008	0.0254395
-2.399272e-008	0.0145996
-2.396772e-008	0.012207
-2.394272e-008	0.0248779
-2.391772e-008	0.0291016
-2.389272e-008	0.0240967
-2.386772e-008	0.0185547
-2.384272e-008	0.0157715
-2.381772e-008	0.0180176
-2.379272e-008	0.0196533
-2.376772e-008	0.0208008
-2.374272e-008	0.0221191
-2.371772e-008	0.0299805
-2.369272e-008	0.02229
-2.366772e-008	0.0102783
-2.364272e-008	0.0268555
-2.361772e-008	0.0123291
-2.359272e-008	-0.00598144
-2.356772e-008	0.025293
-2.354272e-008	0.0312988
-2.351772e-008	0.0213867
-2.349272e-008	0.0267334
-2.346772e-008	0.0147705
-2.344272e-008	0.00788575
-2.341772e-008	0.0262695
-2.339272e-008	0.0384522
-2.336772e-008	0.0182129
-2.334272e-008	0.00681153
-2.331772e-008	0.0209229
-2.329272e-008	0.0192627
-2.326772e-008	0.0222168
-2.324272e-008	0.0251953
-2.321772e-008	0.00366212
-2.319272e-008	0.00732423
-2.316772e-008	0.0286865
-2.314272e-008	0.0252441
-2.311772e-008	0.0245361
-2.309272e-008	0.0328369
-2.306772e-008	0.0290283
-2.304272e-008	0.0237793
-2.301772e-008	0.0164795
-2.299272e-008	0.011084
-2.296772e-008	0.0161865
-2.294272e-008	0.0129639
-2.291772e-008	0.0165039
-2.289272e-008	0.032544
-2.286772e-008	0.0297363
-2.284272e-008	0.0189697
-2.281772e-008	0.0202149
-2.279272e-008	0.0222656
-2.276772e-008	0.0154785
-2.274272e-008	0.00834962
-2.271772e-008	0.0109863
-2.269272e-008	0.0184326
-2.266772e-008	0.0278809
-2.264272e-008	0.0310547
-2.261772e-008	0.0128662
-2.259272e-008	0.00695802
-2.256772e-008	0.0237061
-2.254272e-008	0.0216065
-2.251772e-008	0.0196533
-2.249272e-008	0.027124
-2.246772e-008	0.0341309
-2.244272e-008	0.0390381
-2.241772e-008	0.00947266
-2.239272e-008	-0.0107178
-2.236772e-008	0.00878907
-2.234272e-008	0.0196045
-2.231772e-008	0.0201904
-2.229272e-008	0.0116211
-2.226772e-008	0.00942384
-2.224272e-008	0.0208008
-2.221772e-008	0.00817872
-2.219272e-008	0.0044922
-2.216772e-008	0.021582
-2.214272e-008	0.0168213
-2.211772e-008	0.0126465
-2.209272e-008	0.0198731
-2.206772e-008	0.0279541
-2.204272e-008	0.0287354
-2.201772e-008	0.010791
-2.199272e-008	0.00822755
-2.196772e-008	0.0146973
-2.194272e-008	0.0152832
-2.191772e-008	0.0281738
-2.189272e-008	0.0260498
-2.186772e-008	0.0244141
-2.184272e-008	0.0328369
-2.181772e-008	0.0113281
-2.179272e-008	0.00031739
-2.176772e-008	0.0222412
-2.174272e-008	0.0273926
-2.171772e-008	0.0103027
-2.169272e-008	0.00839845
-2.166772e-008	0.0289551
-2.164272e-008	0.035791
-2.161772e-008	0.0256104
-2.159272e-008	0.0246582
-2.156772e-008	0.0267822
-2.154272e-008	0.0225586
-2.151772e-008	0.0217041
-2.149272e-008	0.0266602
-2.146772e-008	0.0271729
-2.144272e-008	0.021582
-2.141772e-008	0.0159424
-2.139272e-008	0.0180176
-2.136772e-008	0.0216553
-2.134272e-008	0.0207275
-2.131772e-008	0.0290527
-2.129272e-008	0.0303223
-2.126772e-008	0.0229981
-2.124272e-008	0.0156006
-2.121772e-008	-0.00156249
-2.119272e-008	0.0185547
-2.116772e-008	0.0522461
-2.114272e-008	0.0337891
-2.111772e-008	0.0138184
-2.109272e-008	0.0229248
-2.106772e-008	0.0356201
-2.104272e-008	0.0287598
-2.101772e-008	0.00937501
-2.099272e-008	0.0163818
-2.096772e-008	0.0251465
-2.094272e-008	0.0209717
-2.091772e-008	0.0233154
-2.089272e-008	0.0175049
-2.086772e-008	0.0218994
-2.084272e-008	0.0269531
-2.081772e-008	0.0157715
-2.079272e-008	0.0236084
-2.076772e-008	0.0251709
-2.074272e-008	0.0139649
-2.071772e-008	0.0251953
-2.069272e-008	0.0280518
-2.066772e-008	0.021582
-2.064272e-008	0.02771
-2.061772e-008	0.0118897
-2.059272e-008	0.0043213
-2.056772e-008	0.0285645
-2.054272e-008	0.0158936
-2.051772e-008	0.00139161
-2.049272e-008	0.0217041
-2.046772e-008	0.0224854
-2.044272e-008	0.0246826
-2.041772e-008	0.033252
-2.039272e-008	0.0259277
-2.036772e-008	0.0193359
-2.034272e-008	0.0097168
-2.031772e-008	0.0100342
-2.029272e-008	0.02146
-2.026772e-008	0.0219727
-2.024272e-008	0.0251709