# LECROYWM813Zi	51496	Waveform
# Segments	1	SegmentSize	4002
# Segment	TrigTime	TimeSinceSegment1
# #1	30-Nov-2018 17:24:51	0                 
# Time	Ampl
-5.001362e-008	0.0289551
-4.998862e-008	0.0211914
-4.996362e-008	0.0249268
-4.993862e-008	0.0249756
-4.991362e-008	0.0185303
-4.988862e-008	0.0212402
-4.986362e-008	0.021582
-4.983862e-008	0.0212402
-4.981362e-008	0.0172607
-4.978862e-008	0.0217774
-4.976362e-008	0.0286133
-4.973862e-008	0.0248779
-4.971362e-008	0.031665
-4.968862e-008	0.0257324
-4.966362e-008	0.0122803
-4.963862e-008	0.020459
-4.961362e-008	0.0281494
-4.958862e-008	0.0208008
-4.956362e-008	0.00668946
-4.953862e-008	0.0134522
-4.951362e-008	0.0256348
-4.948862e-008	0.00895997
-4.946362e-008	0.0010254
-4.943862e-008	0.0198242
-4.941362e-008	0.0312256
-4.938862e-008	0.0181641
-4.936362e-008	0.00317384
-4.933862e-008	0.0216309
-4.931362e-008	0.0374268
-4.928862e-008	0.0219238
-4.926362e-008	0.0177979
-4.923862e-008	0.0181152
-4.921362e-008	0.0175049
-4.918862e-008	0.0284668
-4.916362e-008	0.0251709
-4.913862e-008	0.0243652
-4.911362e-008	0.0267578
-4.908862e-008	0.0203857
-4.906362e-008	0.0334717
-4.903862e-008	0.0416016
-4.901362e-008	0.0317383
-4.898862e-008	0.0196777
-4.896362e-008	0.0131592
-4.893862e-008	0.0238281
-4.891362e-008	0.0201904
-4.888862e-008	0.0149414
-4.886362e-008	0.0296631
-4.883862e-008	0.0296631
-4.881362e-008	0.025708
-4.878862e-008	0.0270508
-4.876362e-008	0.0244629
-4.873862e-008	0.0285889
-4.871362e-008	0.0358399
-4.868862e-008	0.0310303
-4.866362e-008	0.0162354
-4.863862e-008	0.0127686
-4.861362e-008	0.0195557
-4.858862e-008	0.0202881
-4.856362e-008	0.0205811
-4.853862e-008	0.0286377
-4.851362e-008	0.02854
-4.848862e-008	0.0235596
-4.846362e-008	0.0214844
-4.843862e-008	0.0122315
-4.841362e-008	0.0166016
-4.838862e-008	0.0227783
-4.836362e-008	0.0256348
-4.833862e-008	0.0411865
-4.831362e-008	0.0360108
-4.828862e-008	0.0222412
-4.826362e-008	0.0195801
-4.823862e-008	0.0233154
-4.821362e-008	0.0254639
-4.818862e-008	0.0153809
-4.816362e-008	0.0181152
-4.813862e-008	0.0224121
-4.811362e-008	0.0152588
-4.808862e-008	0.017041
-4.806362e-008	0.0201172
-4.803862e-008	0.0220215
-4.801362e-008	0.0271729
-4.798862e-008	0.0216797
-4.796362e-008	0.0140137
-4.793862e-008	0.0243897
-4.791362e-008	0.0297119
-4.788862e-008	0.0209961
-4.786362e-008	0.0205566
-4.783862e-008	0.0257568
-4.781362e-008	0.0243897
-4.778862e-008	0.0169434
-4.776362e-008	0.0154785
-4.773862e-008	0.0253662
-4.771362e-008	0.029126
-4.768862e-008	0.0130127
-4.766362e-008	0.00957032
-4.763862e-008	0.0193359
-4.761362e-008	0.0127686
-4.758862e-008	0.0147949
-4.756362e-008	0.023291
-4.753862e-008	0.0297608
-4.751362e-008	0.0315186
-4.748862e-008	0.0170654
-4.746362e-008	0.0230957
-4.743862e-008	0.0317871
-4.741362e-008	0.0140869
-4.738862e-008	0.0134522
-4.736362e-008	0.0272217
-4.733862e-008	0.0223145
-4.731362e-008	0.0160645
-4.728862e-008	0.0243164
-4.726362e-008	0.0253662
-4.723862e-008	0.0245117
-4.721362e-008	0.029834
-4.718862e-008	0.0196289
-4.716362e-008	0.0161865
-4.713862e-008	0.0316895
-4.711362e-008	0.0299805
-4.708862e-008	0.0156982
-4.706362e-008	0.0178711
-4.703862e-008	0.025415
-4.701362e-008	0.0197754
-4.698862e-008	0.0306885
-4.696362e-008	0.0479004
-4.693862e-008	0.0294678
-4.691362e-008	0.0221436
-4.688862e-008	0.0230225
-4.686362e-008	0.00441895
-4.683862e-008	0.0116699
-4.681362e-008	0.0199951
-4.678862e-008	0.01521
-4.676362e-008	0.0261719
-4.673862e-008	0.0338379
-4.671362e-008	0.0193359
-4.668862e-008	0.00261231
-4.666362e-008	0.0143311
-4.663862e-008	0.0235596
-4.661362e-008	0.0251465
-4.658862e-008	0.0351563
-4.656362e-008	0.0159668
-4.653862e-008	0.0108154
-4.651362e-008	0.0302002
-4.648862e-008	0.0155029
-4.646362e-008	0.0109375
-4.643862e-008	0.0179932
-4.641362e-008	0.00627442
-4.638862e-008	0.0119873
-4.636362e-008	0.0125977
-4.633862e-008	0.00512696
-4.631362e-008	0.0213379
-4.628862e-008	0.0276611
-4.626362e-008	0.0199707
-4.623862e-008	0.0254639
-4.621362e-008	0.0333496
-4.618862e-008	0.0365234
-4.616362e-008	0.0344727
-4.613862e-008	0.0283936
-4.611362e-008	0.0261719
-4.608862e-008	0.0175293
-4.606362e-008	0.0110596
-4.603862e-008	0.0190918
-4.601362e-008	0.0295166
-4.598862e-008	0.0294678
-4.596362e-008	0.0100586
-4.593862e-008	0.010376
-4.591362e-008	0.0293213
-4.588862e-008	0.020752
-4.586362e-008	0.0122559
-4.583862e-008	0.0170166
-4.581362e-008	0.0197022
-4.578862e-008	0.0227295
-4.576362e-008	0.0239014
-4.573862e-008	0.0243897
-4.571362e-008	0.0180908
-4.568862e-008	0.0146973
-4.566362e-008	0.020459
-4.563862e-008	0.0227539
-4.561362e-008	0.0261963
-4.558862e-008	0.026001
-4.556362e-008	0.0168945
-4.553862e-008	0.0151856
-4.551362e-008	0.0243652
-4.548862e-008	0.0297608
-4.546362e-008	0.0298584
-4.543862e-008	0.0317627
-4.541362e-008	0.0284912
-4.538862e-008	0.0209229
-4.536362e-008	0.0171143
-4.533862e-008	0.0204834
-4.531362e-008	0.0228516
-4.528862e-008	0.0129395
-4.526362e-008	0.0161621
-4.523862e-008	0.0307373
-4.521362e-008	0.0314209
-4.518862e-008	0.0314941
-4.516362e-008	0.0291748
-4.513862e-008	0.0259522
-4.511362e-008	0.0208008
-4.508862e-008	0.008667
-4.506362e-008	0.0138184
-4.503862e-008	0.0294922
-4.501362e-008	0.0337647
-4.498862e-008	0.0170166
-4.496362e-008	0.00671387
-4.493862e-008	0.0244629
-4.491362e-008	0.0268066
-4.488862e-008	0.0179688
-4.486362e-008	0.0178711
-4.483862e-008	0.0168701
-4.481362e-008	0.0295166
-4.478862e-008	0.0314941
-4.476362e-008	0.0161621
-4.473862e-008	0.0280518
-4.471362e-008	0.0369629
-4.468862e-008	0.0109619
-4.466362e-008	0.011084
-4.463862e-008	0.0356445
-4.461362e-008	0.0291992
-4.458862e-008	0.0236328
-4.456362e-008	0.0244385
-4.453862e-008	0.0185303
-4.451362e-008	0.0259277
-4.448862e-008	0.0150391
-4.446362e-008	0.00681153
-4.443862e-008	0.0209473
-4.441362e-008	0.0195801
-4.438862e-008	0.0282715
-4.436362e-008	0.0366211
-4.433862e-008	0.0226074
-4.431362e-008	0.0172607
-4.428862e-008	0.0177246
-4.426362e-008	0.0174316
-4.423862e-008	0.0167481
-4.421362e-008	0.0190918
-4.418862e-008	0.0268066
-4.416362e-008	0.0233399
-4.413862e-008	0.0168213
-4.411362e-008	0.0212402
-4.408862e-008	0.0224365
-4.406362e-008	0.0200195
-4.403862e-008	0.0229981
-4.401362e-008	0.0238281
-4.398862e-008	0.0173584
-4.396362e-008	0.0111572
-4.393862e-008	0.0228027
-4.391362e-008	0.0351318
-4.388862e-008	0.0251953
-4.386362e-008	0.017749
-4.383862e-008	0.0177002
-4.381362e-008	0.0160156
-4.378862e-008	0.0171387
-4.376362e-008	0.0219971
-4.373862e-008	0.0245117
-4.371362e-008	0.013501
-4.368862e-008	0.0131592
-4.366362e-008	0.0270752
-4.363862e-008	0.0273682
-4.361362e-008	0.0297363
-4.358862e-008	0.0371582
-4.356362e-008	0.0325928
-4.353862e-008	0.0263428
-4.351362e-008	0.0227295
-4.348862e-008	0.0207764
-4.346362e-008	0.0195313
-4.343862e-008	0.0225586
-4.341362e-008	0.0352051
-4.338862e-008	0.0266602
-4.336362e-008	0.0074463
-4.333862e-008	0.0208984
-4.331362e-008	0.0375488
-4.328862e-008	0.0315674
-4.326362e-008	0.015918
-4.323862e-008	0.0113525
-4.321362e-008	0.0240723
-4.318862e-008	0.0243408
-4.316362e-008	0.0168701
-4.313862e-008	0.0213867
-4.311362e-008	0.0216553
-4.308862e-008	0.015332
-4.306362e-008	0.0199951
-4.303862e-008	0.0277344
-4.301362e-008	0.0226318
-4.298862e-008	0.0248047
-4.296362e-008	0.0248779
-4.293862e-008	0.014502
-4.291362e-008	0.0273438
-4.288862e-008	0.0305176
-4.286362e-008	0.0172607
-4.283862e-008	0.029419
-4.281362e-008	0.0307617
-4.278862e-008	0.0164063
-4.276362e-008	0.0154297
-4.273862e-008	0.0199951
-4.271362e-008	0.0295166
-4.268862e-008	0.0225098
-4.266362e-008	0.0160889
-4.263862e-008	0.0284668
-4.261362e-008	0.0134522
-4.258862e-008	0.00317384
-4.256362e-008	0.0142822
-4.253862e-008	0.0137207
-4.251362e-008	0.0284912
-4.248862e-008	0.0345947
-4.246362e-008	0.0177246
-4.243862e-008	0.0162354
-4.241362e-008	0.0218018
-4.238862e-008	0.0226563
-4.236362e-008	0.0261475
-4.233862e-008	0.0359863
-4.231362e-008	0.031543
-4.228862e-008	0.0171875
-4.226362e-008	0.0134766
-4.223862e-008	0.0120361
-4.221362e-008	0.0178467
-4.218862e-008	0.00878907
-4.216362e-008	-0.00354003
-4.213862e-008	0.0210205
-4.211362e-008	0.039624
-4.208862e-008	0.0323731
-4.206362e-008	0.0221191
-4.203862e-008	0.0194336
-4.201362e-008	0.0270264
-4.198862e-008	0.02854
-4.196362e-008	0.0267822
-4.193862e-008	0.0310791
-4.191362e-008	0.0283447
-4.188862e-008	0.0126709
-4.186362e-008	0.00805665
-4.183862e-008	0.0253906
-4.181362e-008	0.0228516
-4.178862e-008	0.00590821
-4.176362e-008	0.0170654
-4.173862e-008	0.0290772
-4.171362e-008	0.0234619
-4.168862e-008	0.0135742
-4.166362e-008	0.0112061
-4.163862e-008	0.0258545
-4.161362e-008	0.02771
-4.158862e-008	0.0145752
-4.156362e-008	0.0157227
-4.153862e-008	0.0243164
-4.151362e-008	0.02854
-4.148862e-008	0.0261475
-4.146362e-008	0.0200684
-4.143862e-008	0.0196533
-4.141362e-008	0.0229004
-4.138862e-008	0.0207275
-4.136362e-008	0.0128906
-4.133862e-008	0.0101807
-4.131362e-008	0.0232666
-4.128862e-008	0.0272461
-4.126362e-008	0.0141357
-4.123862e-008	0.0117188
-4.121362e-008	0.0133789
-4.118862e-008	0.019751
-4.116362e-008	0.0205566
-4.113862e-008	0.0219727
-4.111362e-008	0.0460938
-4.108862e-008	0.0345215
-4.106362e-008	0.0117676
-4.103862e-008	0.0274414
-4.101362e-008	0.0255859
-4.098862e-008	0.0141357
-4.096362e-008	0.0209717
-4.093862e-008	0.0295166
-4.091362e-008	0.0272949
-4.088862e-008	0.0199707
-4.086362e-008	0.0246826
-4.083862e-008	0.0231201
-4.081362e-008	0.0226807
-4.078862e-008	0.0290772
-4.076362e-008	0.0218994
-4.073862e-008	0.0240967
-4.071362e-008	0.0248047
-4.068862e-008	0.0137451
-4.066362e-008	0.0191406
-4.063862e-008	0.0232422
-4.061362e-008	0.0179932
-4.058862e-008	0.0173828
-4.056362e-008	0.0116455
-4.053862e-008	0.0175293
-4.051362e-008	0.0376709
-4.048862e-008	0.0233399
-4.046362e-008	0.00590821
-4.043862e-008	0.0205811
-4.041362e-008	0.0197754
-4.038862e-008	0.0217529
-4.036362e-008	0.0304199
-4.033862e-008	0.0272949
-4.031362e-008	0.0395508
-4.028862e-008	0.0364258
-4.026362e-008	0.0140869
-4.023862e-008	0.00847169
-4.021362e-008	0.0253662
-4.018862e-008	0.0354248
-4.016362e-008	0.0145752
-4.013862e-008	0.0161133
-4.011362e-008	0.0256592
-4.008862e-008	0.0100342
-4.006362e-008	0.0153076
-4.003862e-008	0.0215576
-4.001362e-008	0.0151856
-3.998862e-008	0.0164551
-3.996362e-008	0.020752
-3.993862e-008	0.0323242
-3.991362e-008	0.0281738
-3.988862e-008	0.011792
-3.986362e-008	0.0136231
-3.983862e-008	0.0248535
-3.981362e-008	0.0328613
-3.978862e-008	0.0271973
-3.976362e-008	0.0192139
-3.973862e-008	0.0204102
-3.971362e-008	0.023999
-3.968862e-008	0.0300293
-3.966362e-008	0.0226318
-3.963862e-008	0.00996095
-3.961362e-008	0.0143799
-3.958862e-008	0.020459
-3.956362e-008	0.0178711
-3.953862e-008	0.0240234
-3.951362e-008	0.0334717
-3.948862e-008	0.0237549
-3.946362e-008	0.0199463
-3.943862e-008	0.0263672
-3.941362e-008	0.0158936
-3.938862e-008	0.00615235
-3.936362e-008	0.0100098
-3.933862e-008	0.0244141
-3.931362e-008	0.03125
-3.928862e-008	0.0157227
-3.926362e-008	0.00913087
-3.923862e-008	0.0171143
-3.921362e-008	0.0191895
-3.918862e-008	0.0183594
-3.916362e-008	0.0220703
-3.913862e-008	0.0313477
-3.911362e-008	0.027417
-3.908862e-008	0.0154785
-3.906362e-008	0.0151123
-3.903862e-008	0.0132324
-3.901362e-008	0.0157715
-3.898862e-008	0.0202149
-3.896362e-008	0.0167236
-3.893862e-008	0.0222412
-3.891362e-008	0.0210693
-3.888862e-008	0.0115234
-3.886362e-008	0.0196777
-3.883862e-008	0.0290039
-3.881362e-008	0.0257568
-3.878862e-008	0.0220703
-3.876362e-008	0.017627
-3.873862e-008	0.0275391
-3.871362e-008	0.0365234
-3.868862e-008	0.0173828
-3.866362e-008	0.0172363
-3.863862e-008	0.0302979
-3.861362e-008	0.0223145
-3.858862e-008	0.0142822
-3.856362e-008	0.0137451
-3.853862e-008	0.0277832
-3.851362e-008	0.0307617
-3.848862e-008	0.019165
-3.846362e-008	0.0235596
-3.843862e-008	0.0248535
-3.841362e-008	0.0290527
-3.838862e-008	0.0354492
-3.836362e-008	0.0219971
-3.833862e-008	0.0208984
-3.831362e-008	0.0351563
-3.828862e-008	0.0260498
-3.826362e-008	0.0179199
-3.823862e-008	0.0307373
-3.821362e-008	0.0294922
-3.818862e-008	0.0127197
-3.816362e-008	0.00563966
-3.813862e-008	0.0178223
-3.811362e-008	0.0241211
-3.808862e-008	0.014502
-3.806362e-008	0.0230225
-3.803862e-008	0.0322754
-3.801362e-008	0.0229981
-3.798862e-008	0.0244385
-3.796362e-008	0.028418
-3.793862e-008	0.029419
-3.791362e-008	0.0334229
-3.788862e-008	0.0194824
-3.786362e-008	0.00871583
-3.783862e-008	0.0197022
-3.781362e-008	0.0284668
-3.778862e-008	0.0157227
-3.776362e-008	-0.00788573
-3.773862e-008	0.000610359
-3.771362e-008	0.0224609
-3.768862e-008	0.0214111
-3.766362e-008	0.026709
-3.763862e-008	0.034082
-3.761362e-008	0.0232178
-3.758862e-008	0.024292
-3.756362e-008	0.0357178
-3.753862e-008	0.0253906
-3.751362e-008	0.018457
-3.748862e-008	0.0226563
-3.746362e-008	0.0190186
-3.743862e-008	0.0230713
-3.741362e-008	0.0269531
-3.738862e-008	0.0297608
-3.736362e-008	0.0287354
-3.733862e-008	0.0176514
-3.731362e-008	0.0208008
-3.728862e-008	0.0138428
-3.726362e-008	0.00461427
-3.723862e-008	0.0207764
-3.721362e-008	0.0211426
-3.718862e-008	0.0147705
-3.716362e-008	0.0151367
-3.713862e-008	0.0131592
-3.711362e-008	0.029541
-3.708862e-008	0.0403076
-3.706362e-008	0.0287598
-3.703862e-008	0.0217774
-3.701362e-008	0.0248291
-3.698862e-008	0.022583
-3.696362e-008	0.0253662
-3.693862e-008	0.0311035
-3.691362e-008	0.0104736
-3.688862e-008	0.00568848
-3.686362e-008	0.0250977
-3.683862e-008	0.0184082
-3.681362e-008	0.014502
-3.678862e-008	0.0256104
-3.676362e-008	0.0252441
-3.673862e-008	0.0297119
-3.671362e-008	0.0382813
-3.668862e-008	0.0275147
-3.666362e-008	0.0225098
-3.663862e-008	0.0361816
-3.661362e-008	0.0390137
-3.658862e-008	0.023999
-3.656362e-008	0.00986329
-3.653862e-008	0.0218018
-3.651362e-008	0.0229248
-3.648862e-008	0.00200196
-3.646362e-008	0.013794
-3.643862e-008	0.0274414
-3.641362e-008	0.0214844
-3.638862e-008	0.0191895
-3.636362e-008	0.0163574
-3.633862e-008	0.0242432
-3.631362e-008	0.030542
-3.628862e-008	0.0206055
-3.626362e-008	0.0158447
-3.623862e-008	0.0233887
-3.621362e-008	0.0274658
-3.618862e-008	0.027002
-3.616362e-008	0.0261231
-3.613862e-008	0.0246338
-3.611362e-008	0.0328125
-3.608862e-008	0.0287598
-3.606362e-008	0.0203613
-3.603862e-008	0.0343018
-3.601362e-008	0.0302979
-3.598862e-008	0.0177246
-3.596362e-008	0.0210449
-3.593862e-008	0.0233643
-3.591362e-008	0.0267334
-3.588862e-008	0.0174561
-3.586362e-008	0.0136719
-3.583862e-008	0.0362061
-3.581362e-008	0.0398193
-3.578862e-008	0.0263916
-3.576362e-008	0.0282715
-3.573862e-008	0.0316895
-3.571362e-008	0.0269043
-3.568862e-008	0.0108154
-3.566362e-008	0.00505372
-3.563862e-008	0.0280274
-3.561362e-008	0.0278076
-3.558862e-008	0.00236817
-3.556362e-008	0.0098877
-3.553862e-008	0.0335449
-3.551362e-008	0.0343262
-3.548862e-008	0.0283447
-3.546362e-008	0.0272461
-3.543862e-008	0.0232422
-3.541362e-008	0.0294922
-3.538862e-008	0.0310059
-3.536362e-008	0.0163818
-3.533862e-008	0.022583
-3.531362e-008	0.0250733
-3.528862e-008	0.00549317
-3.526362e-008	0.01521
-3.523862e-008	0.0295166
-3.521362e-008	0.0208984
-3.518862e-008	0.0206055
-3.516362e-008	0.02229
-3.513862e-008	0.0279297
-3.511362e-008	0.0308594
-3.508862e-008	0.0213379
-3.506362e-008	0.0240479
-3.503862e-008	0.0291992
-3.501362e-008	0.0297119
-3.498862e-008	0.0335693
-3.496362e-008	0.0271729
-3.493862e-008	0.0109619
-3.491362e-008	0.0148682
-3.488862e-008	0.0280762
-3.486362e-008	0.0168213
-3.483862e-008	0.0191162
-3.481362e-008	0.0361328
-3.478862e-008	0.0318359
-3.476362e-008	0.0262207
-3.473862e-008	0.0227783
-3.471362e-008	0.0241455
-3.468862e-008	0.0237549
-3.466362e-008	0.0119873
-3.463862e-008	0.0140137
-3.461362e-008	0.0173828
-3.458862e-008	0.0142822
-3.456362e-008	0.016626
-3.453862e-008	0.0205566
-3.451362e-008	0.0312256
-3.448862e-008	0.0260498
-3.446362e-008	0.0150391
-3.443862e-008	0.027124
-3.441362e-008	0.0228272
-3.438862e-008	0.0103516
-3.436362e-008	0.0161621
-3.433862e-008	0.0202393
-3.431362e-008	0.029834
-3.428862e-008	0.0261475
-3.426362e-008	0.0119629
-3.423862e-008	0.0248779
-3.421362e-008	0.0324951
-3.418862e-008	0.0110596
-3.416362e-008	0.00256348
-3.413862e-008	0.030957
-3.411362e-008	0.0431152
-3.408862e-008	0.0192383
-3.406362e-008	0.013916
-3.403862e-008	0.0248779
-3.401362e-008	0.0274902
-3.398862e-008	0.0210693
-3.396362e-008	0.0121094
-3.393862e-008	0.0221191
-3.391362e-008	0.0282227
-3.388862e-008	0.0184326
-3.386362e-008	0.0220215
-3.383862e-008	0.0187256
-3.381362e-008	0.0124756
-3.378862e-008	0.0291504
-3.376362e-008	0.0315674
-3.373862e-008	0.0254639
-3.371362e-008	0.0252197
-3.368862e-008	0.0113525
-3.366362e-008	0.0158936
-3.363862e-008	0.0301758
-3.361362e-008	0.0202149
-3.358862e-008	0.0115234
-3.356362e-008	0.0150147
-3.353862e-008	0.0209229
-3.351362e-008	0.0237305
-3.348862e-008	0.0208252
-3.346362e-008	0.0179932
-3.343862e-008	0.0200684
-3.341362e-008	0.0235352
-3.338862e-008	0.022876
-3.336362e-008	0.0224121
-3.333862e-008	0.0276367
-3.331362e-008	0.022168
-3.328862e-008	0.00490723
-3.326362e-008	0.0124756
-3.323862e-008	0.0365723
-3.321362e-008	0.0368897
-3.318862e-008	0.0201172
-3.316362e-008	0.0140137
-3.313862e-008	0.0251953
-3.311362e-008	0.0250977
-3.308862e-008	0.0136231
-3.306362e-008	0.0233887
-3.303862e-008	0.0277832
-3.301362e-008	0.0229736
-3.298862e-008	0.0328125
-3.296362e-008	0.025415
-3.293862e-008	0.0171143
-3.291362e-008	0.0266846
-3.288862e-008	0.0247559
-3.286362e-008	0.0271973
-3.283862e-008	0.028833
-3.281362e-008	0.0197266
-3.278862e-008	0.0224609
-3.276362e-008	0.0263672
-3.273862e-008	0.0296875
-3.271362e-008	0.030127
-3.268862e-008	0.0195313
-3.266362e-008	0.0131836
-3.263862e-008	0.0104736
-3.261362e-008	0.0114258
-3.258862e-008	0.0174072
-3.256362e-008	0.0125977
-3.253862e-008	0.013794
-3.251362e-008	0.0318115
-3.248862e-008	0.0233399
-3.246362e-008	0.00810548
-3.243862e-008	0.0263184
-3.241362e-008	0.0282227
-3.238862e-008	0.0154541
-3.236362e-008	0.0221924
-3.233862e-008	0.0269775
-3.231362e-008	0.026001
-3.228862e-008	0.0234131
-3.226362e-008	0.0212647
-3.223862e-008	0.0176758
-3.221362e-008	0.0181641
-3.218862e-008	0.02771
-3.216362e-008	0.0229981
-3.213862e-008	0.0230469
-3.211362e-008	0.0330078
-3.208862e-008	0.0206055
-3.206362e-008	0.0155762
-3.203862e-008	0.0244873
-3.201362e-008	0.0179688
-3.198862e-008	0.0148926
-3.196362e-008	0.0223389
-3.193862e-008	0.0236816
-3.191362e-008	0.0154541
-3.188862e-008	0.00458985
-3.186362e-008	0.0112549
-3.183862e-008	0.0264404
-3.181362e-008	0.0253906
-3.178862e-008	0.0260498
-3.176362e-008	0.0292969
-3.173862e-008	0.02229
-3.171362e-008	0.0215332
-3.168862e-008	0.0223877
-3.166362e-008	0.0231445
-3.163862e-008	0.0249268
-3.161362e-008	0.0185547
-3.158862e-008	0.00957032
-3.156362e-008	0.00451661
-3.153862e-008	0.0181885
-3.151362e-008	0.0315918
-3.148862e-008	0.0177246
-3.146362e-008	0.0117188
-3.143862e-008	0.0255371
-3.141362e-008	0.0272949
-3.138862e-008	0.0186035
-3.136362e-008	0.0177734
-3.133862e-008	0.0260986
-3.131362e-008	0.025708
-3.128862e-008	0.0112305
-3.126362e-008	0.0133789
-3.123862e-008	0.0266113
-3.121362e-008	0.0302979
-3.118862e-008	0.0302002
-3.116362e-008	0.0256592
-3.113862e-008	0.0284424
-3.111362e-008	0.0329346
-3.108862e-008	0.0267578
-3.106362e-008	0.0199951
-3.103862e-008	0.0224609
-3.101362e-008	0.0312988
-3.098862e-008	0.0186035
-3.096362e-008	0.014917
-3.093862e-008	0.0404297
-3.091362e-008	0.0291992
-3.088862e-008	0.00717774
-3.086362e-008	0.0193115
-3.083862e-008	0.0202149
-3.081362e-008	0.0215088
-3.078862e-008	0.0366455
-3.076362e-008	0.0271729
-3.073862e-008	0.0288574
-3.071362e-008	0.0468018
-3.068862e-008	0.0258057
-3.066362e-008	0.0239746
-3.063862e-008	0.0422363
-3.061362e-008	0.0103272
-3.058862e-008	0.00427247
-3.056362e-008	0.0270752
-3.053862e-008	0.0225098
-3.051362e-008	0.0276123
-3.048862e-008	0.0253906
-3.046362e-008	0.0258789
-3.043862e-008	0.0307617
-3.041362e-008	0.0148438
-3.038862e-008	0.0279541
-3.036362e-008	0.0335693
-3.033862e-008	0.00546876
-3.031362e-008	0.00644532
-3.028862e-008	0.0249024
-3.026362e-008	0.0286621
-3.023862e-008	0.022168
-3.021362e-008	0.0205566
-3.018862e-008	0.0282959
-3.016362e-008	0.0272705
-3.013862e-008	0.0260986
-3.011362e-008	0.0328369
-3.008862e-008	0.0236084
-3.006362e-008	0.0129395
-3.003862e-008	0.0133057
-3.001362e-008	0.0111816
-2.998862e-008	0.0146484
-2.996362e-008	0.0166748
-2.993862e-008	0.0261231
-2.991362e-008	0.0291992
-2.988862e-008	-0.00214843
-2.986362e-008	0.00371095
-2.983862e-008	0.0439453
-2.981362e-008	0.0358887
-2.978862e-008	0.0167969
-2.976362e-008	0.0201172
-2.973862e-008	0.0272461
-2.971362e-008	0.0377197
-2.968862e-008	0.028833
-2.966362e-008	0.0139649
-2.963862e-008	0.0212647
-2.961362e-008	0.0261963
-2.958862e-008	0.0245361
-2.956362e-008	0.027124
-2.953862e-008	0.0301025
-2.951362e-008	0.023169
-2.948862e-008	0.0159668
-2.946362e-008	0.0218506
-2.943862e-008	0.0138184
-2.941362e-008	0.014917
-2.938862e-008	0.0291504
-2.936362e-008	0.0167236
-2.933862e-008	0.0262207
-2.931362e-008	0.0388184
-2.928862e-008	0.00932618
-2.926362e-008	0.00961915
-2.923862e-008	0.0293945
-2.921362e-008	0.0226074
-2.918862e-008	0.0205566
-2.916362e-008	0.0229004
-2.913862e-008	0.023999
-2.911362e-008	0.0240234
-2.908862e-008	0.017749
-2.906362e-008	0.020166
-2.903862e-008	0.0248047
-2.901362e-008	0.0287598
-2.898862e-008	0.0308838
-2.896362e-008	0.0324707
-2.893862e-008	0.0451172
-2.891362e-008	0.0368408
-2.888862e-008	0.0147705
-2.886362e-008	0.0167481
-2.883862e-008	0.0186035
-2.881362e-008	0.0238037
-2.878862e-008	0.0393066
-2.876362e-008	0.0334229
-2.873862e-008	0.0224121
-2.871362e-008	0.0210938
-2.868862e-008	0.0227539
-2.866362e-008	0.0251953
-2.863862e-008	0.0208496
-2.861362e-008	0.0240967
-2.858862e-008	0.0211182
-2.856362e-008	0.0117188
-2.853862e-008	0.0324707
-2.851362e-008	0.0380127
-2.848862e-008	0.0163818
-2.846362e-008	0.0183594
-2.843862e-008	0.0228516
-2.841362e-008	0.0203369
-2.838862e-008	0.0183838
-2.836362e-008	0.0129639
-2.833862e-008	0.0302979
-2.831362e-008	0.0406006
-2.828862e-008	0.0212158
-2.826362e-008	0.0207031
-2.823862e-008	0.0280274
-2.821362e-008	0.0199219
-2.818862e-008	0.0241211
-2.816362e-008	0.0313965
-2.813862e-008	0.0253174
-2.811362e-008	0.0240234
-2.808862e-008	0.020874
-2.806362e-008	0.0158936
-2.803862e-008	0.0296631
-2.801362e-008	0.028418
-2.798862e-008	0.00573731
-2.796362e-008	0.013916
-2.793862e-008	0.0368652
-2.791362e-008	0.0305664
-2.788862e-008	0.013501
-2.786362e-008	0.01875
-2.783862e-008	0.0268311
-2.781362e-008	0.0211182
-2.778862e-008	0.0264649
-2.776362e-008	0.0287109
-2.773862e-008	0.0182861
-2.771362e-008	0.0234619
-2.768862e-008	0.0289551
-2.766362e-008	0.0222656
-2.763862e-008	0.020044
-2.761362e-008	0.0208008
-2.758862e-008	0.0234131
-2.756362e-008	0.0258545
-2.753862e-008	0.0287354
-2.751362e-008	0.0358154
-2.748862e-008	0.0312988
-2.746362e-008	0.0186524
-2.743862e-008	0.0144531
-2.741362e-008	0.0204834
-2.738862e-008	0.0237549
-2.736362e-008	0.00527345
-2.733862e-008	0.00390626
-2.731362e-008	0.0292236
-2.728862e-008	0.0293457
-2.726362e-008	0.0256592
-2.723862e-008	0.0309082
-2.721362e-008	0.0228027
-2.718862e-008	0.0165283
-2.716362e-008	0.0171143
-2.713862e-008	0.0261963
-2.711362e-008	0.0248535
-2.708862e-008	0.0125244
-2.706362e-008	0.0211914
-2.703862e-008	0.0228027
-2.701362e-008	0.0225586
-2.698862e-008	0.0385986
-2.696362e-008	0.0226318
-2.693862e-008	0.0116455
-2.691362e-008	0.0289307
-2.688862e-008	0.0117188
-2.686362e-008	0.00427247
-2.683862e-008	0.031665
-2.681362e-008	0.0296143
-2.678862e-008	0.0199219
-2.676362e-008	0.0260254
-2.673862e-008	0.0275391
-2.671362e-008	0.0317871
-2.668862e-008	0.0165772
-2.666362e-008	-0.00100097
-2.663862e-008	0.0126953
-2.661362e-008	0.0195313
-2.658862e-008	0.0193604
-2.656362e-008	0.016919
-2.653862e-008	0.0202393
-2.651362e-008	0.0348389
-2.648862e-008	0.0279053
-2.646362e-008	0.0252197
-2.643862e-008	0.0216553
-2.641362e-008	0.0117188
-2.638862e-008	0.0266113
-2.636362e-008	0.0244141
-2.633862e-008	0.014209
-2.631362e-008	0.0287354
-2.628862e-008	0.0217285
-2.626362e-008	0.0115967
-2.623862e-008	0.0322266
-2.621362e-008	0.0294434
-2.618862e-008	0.0102051
-2.616362e-008	0.0164795
-2.613862e-008	0.0236572
-2.611362e-008	0.0166992
-2.608862e-008	0.00332032
-2.606362e-008	0.00253907
-2.603862e-008	0.0147217
-2.601362e-008	0.0226318
-2.598862e-008	0.026416
-2.596362e-008	0.0204834
-2.593862e-008	0.0154785
-2.591362e-008	0.0258057
-2.588862e-008	0.0326172
-2.586362e-008	0.0271729
-2.583862e-008	0.0266846
-2.581362e-008	0.0250977
-2.578862e-008	0.0159912
-2.576362e-008	0.0161865
-2.573862e-008	0.0221436
-2.571362e-008	0.0225098
-2.568862e-008	0.0170654
-2.566362e-008	0.0178467
-2.563862e-008	0.0248535
-2.561362e-008	0.030249
-2.558862e-008	0.037085
-2.556362e-008	0.0294678
-2.553862e-008	0.0250733
-2.551362e-008	0.030249
-2.548862e-008	0.00803223
-2.546362e-008	0.0025879
-2.543862e-008	0.0234375
-2.541362e-008	0.0108887
-2.538862e-008	0.00568848
-2.536362e-008	0.0233399
-2.533862e-008	0.0227783
-2.531362e-008	0.0227783
-2.528862e-008	0.0231201
-2.526362e-008	0.0182373
-2.523862e-008	0.0151123
-2.521362e-008	0.0124024
-2.518862e-008	0.018335
-2.516362e-008	0.0182129
-2.513862e-008	0.0199951
-2.511362e-008	0.0299805
-2.508862e-008	0.0212158
-2.506362e-008	0.0112549
-2.503862e-008	0.020044
-2.501362e-008	0.0286133
-2.498862e-008	0.0272217
-2.496362e-008	0.0235352
-2.493862e-008	0.0276367
-2.491362e-008	0.0222168
-2.488862e-008	0.00231934
-2.486362e-008	0.00644532
-2.483862e-008	0.01604
-2.481362e-008	0.0112305
-2.478862e-008	0.0172607
-2.476362e-008	0.0188965
-2.473862e-008	0.0242188
-2.471362e-008	0.0324951
-2.468862e-008	0.0217041
-2.466362e-008	0.0181641
-2.463862e-008	0.0194092
-2.461362e-008	0.0177246
-2.458862e-008	0.0186524
-2.456362e-008	0.0153565
-2.453862e-008	0.0279053
-2.451362e-008	0.0395508
-2.448862e-008	0.0225342
-2.446362e-008	0.0214844
-2.443862e-008	0.032251
-2.441362e-008	0.0110107
-2.438862e-008	0.00581055
-2.436362e-008	0.0262451
-2.433862e-008	0.0263428
-2.431362e-008	0.0253418
-2.428862e-008	0.0246338
-2.426362e-008	0.0194336
-2.423862e-008	0.0301025
-2.421362e-008	0.0279785
-2.418862e-008	0.0166016
-2.416362e-008	0.0242676
-2.413862e-008	0.0235352
-2.411362e-008	0.0196045
-2.408862e-008	0.0203369
-2.406362e-008	0.0116699
-2.403862e-008	0.0136231
-2.401362e-008	0.0192627
-2.398862e-008	0.020874
-2.396362e-008	0.0198731
-2.393862e-008	0.0196533
-2.391362e-008	0.0274414
-2.388862e-008	0.0221191
-2.386362e-008	0.0258301
-2.383862e-008	0.035669
-2.381362e-008	0.0258057
-2.378862e-008	0.0290283
-2.376362e-008	0.0332764
-2.373862e-008	0.0258057
-2.371362e-008	0.0226318
-2.368862e-008	0.0160889
-2.366362e-008	0.0130859
-2.363862e-008	0.0192383
-2.361362e-008	0.0224854
-2.358862e-008	0.0173584
-2.356362e-008	0.0184326
-2.353862e-008	0.0275635
-2.351362e-008	0.0246582
-2.348862e-008	0.0163574
-2.346362e-008	0.0197754
-2.343862e-008	0.0234619
-2.341362e-008	0.0188232
-2.338862e-008	0.0162354
-2.336362e-008	0.0172607
-2.333862e-008	0.0247315
-2.331362e-008	0.0259522
-2.328862e-008	0.0174561
-2.326362e-008	0.0195801
-2.323862e-008	0.0180908
-2.321362e-008	0.0252441
-2.318862e-008	0.025293
-2.316362e-008	-0.00295409
-2.313862e-008	0.0165772
-2.311362e-008	0.0424805
-2.308862e-008	0.0236084
-2.306362e-008	0.0308838
-2.303862e-008	0.0327149
-2.301362e-008	0.0214844
-2.298862e-008	0.0290039
-2.296362e-008	0.0192627
-2.293862e-008	0.0200684
-2.291362e-008	0.0322266
-2.288862e-008	0.0260254
-2.286362e-008	0.0214844
-2.283862e-008	0.0194336
-2.281362e-008	0.0233399
-2.278862e-008	0.0277344
-2.276362e-008	0.0251465
-2.273862e-008	0.0268066
-2.271362e-008	0.0266358
-2.268862e-008	0.0173584
-2.266362e-008	0.00893555
-2.263862e-008	0.0140869
-2.261362e-008	0.0221436
-2.258862e-008	0.0208984
-2.256362e-008	0.0184326
-2.253862e-008	0.0245606
-2.251362e-008	0.0253906
-2.248862e-008	0.0175049
-2.246362e-008	0.0213867
-2.243862e-008	0.0272705
-2.241362e-008	0.0303711
-2.238862e-008	0.0271484
-2.236362e-008	0.0157959
-2.233862e-008	0.0154785
-2.231362e-008	0.0193359
-2.228862e-008	0.0247559
-2.226362e-008	0.027124
-2.223862e-008	0.0206787
-2.221362e-008	0.024707
-2.218862e-008	0.028833
-2.216362e-008	0.0146484
-2.213862e-008	0.0122315
-2.211362e-008	0.0305176
-2.208862e-008	0.0287842
-2.206362e-008	0.0191895
-2.203862e-008	0.0291992
-2.201362e-008	0.0330566
-2.198862e-008	0.0268799
-2.196362e-008	0.020166
-2.193862e-008	0.0128418
-2.191362e-008	0.0105957
-2.188862e-008	0.0105957
-2.186362e-008	0.013208
-2.183862e-008	0.0159424
-2.181362e-008	0.0241943
-2.178862e-008	0.0307861
-2.176362e-008	0.0148438
-2.173862e-008	0.0168457
-2.171362e-008	0.0398926
-2.168862e-008	0.0270752
-2.166362e-008	0.00935059
-2.163862e-008	0.0203613
-2.161362e-008	0.0229981
-2.158862e-008	0.0146729
-2.156362e-008	0.0225586
-2.153862e-008	0.0416504
-2.151362e-008	0.040918
-2.148862e-008	0.0122803
-2.146362e-008	0.00690919
-2.143862e-008	0.0263184
-2.141362e-008	0.02146
-2.138862e-008	0.0156982
-2.136362e-008	0.0101563
-2.133862e-008	0.0124512
-2.131362e-008	0.0365479
-2.128862e-008	0.0266358
-2.126362e-008	0.0193848
-2.123862e-008	0.0308106
-2.121362e-008	0.020874
-2.118862e-008	0.021167
-2.116362e-008	0.022876
-2.113862e-008	0.0261719
-2.111362e-008	0.0360108
-2.108862e-008	0.03125
-2.106362e-008	0.0311768
-2.103862e-008	0.0260986
-2.101362e-008	0.0226563
-2.098862e-008	0.0352051
-2.096362e-008	0.0221924
-2.093862e-008	0.0109131
-2.091362e-008	0.021875
-2.088862e-008	0.0112061
-2.086362e-008	0.0083252
-2.083862e-008	0.0190918
-2.081362e-008	0.0187744
-2.078862e-008	0.0221191
-2.076362e-008	0.0259277
-2.073862e-008	0.0329346
-2.071362e-008	0.0290527
-2.068862e-008	0.00979005
-2.066362e-008	0.000805672
-2.063862e-008	0.0100342
-2.061362e-008	0.032251
-2.058862e-008	0.032959
-2.056362e-008	0.0100342
-2.053862e-008	0.00874024
-2.051362e-008	0.0215576
-2.048862e-008	0.0184815
-2.046362e-008	0.024707
-2.043862e-008	0.0322022
-2.041362e-008	0.0164307
-2.038862e-008	0.021167
-2.036362e-008	0.0314209
-2.033862e-008	0.0223389
-2.031362e-008	0.0225098
-2.028862e-008	0.0190674
-2.026362e-008	0.0142822
-2.023862e-008	0.016626
-2.021362e-008	0.0189453
-2.018862e-008	0.0288574
-2.016362e-008	0.0365234
-2.013862e-008	0.0341797