# LECROYWM813Zi	51496	Waveform
# Segments	1	SegmentSize	4002
# Segment	TrigTime	TimeSinceSegment1
# #1	30-Nov-2018 17:18:47	0                 
# Time	Ampl
-5.001542e-008	0.0289307
-4.999042e-008	0.0128662
-4.996542e-008	0.0146729
-4.994042e-008	0.0271973
-4.991542e-008	0.0166748
-4.989042e-008	0.0136475
-4.986542e-008	0.0124268
-4.984042e-008	0.0179443
-4.981542e-008	0.0328369
-4.979042e-008	0.0282715
-4.976542e-008	0.0258789
-4.974042e-008	0.0323975
-4.971542e-008	0.0251709
-4.969042e-008	0.0203857
-4.966542e-008	0.0237305
-4.964042e-008	0.0185791
-4.961542e-008	0.0165527
-4.959042e-008	0.0149414
-4.956542e-008	0.013794
-4.954042e-008	0.022168
-4.951542e-008	0.0187744
-4.949042e-008	0.0192627
-4.946542e-008	0.0296387
-4.944042e-008	0.0243897
-4.941542e-008	0.0162842
-4.939042e-008	0.0195068
-4.936542e-008	0.0238281
-4.934042e-008	0.0190674
-4.931542e-008	0.017041
-4.929042e-008	0.018457
-4.926542e-008	0.0182373
-4.924042e-008	0.0167236
-4.921542e-008	0.00180665
-4.919042e-008	0.00322266
-4.916542e-008	0.0230225
-4.914042e-008	0.0223877
-4.911542e-008	0.0195313
-4.909042e-008	0.0136719
-4.906542e-008	0.00478516
-4.904042e-008	0.0213623
-4.901542e-008	0.0300049
-4.899042e-008	0.0208008
-4.896542e-008	0.0272949
-4.894042e-008	0.0262695
-4.891542e-008	0.0128662
-4.889042e-008	0.0233399
-4.886542e-008	0.0332031
-4.884042e-008	0.0192383
-4.881542e-008	0.00837403
-4.879042e-008	0.0145752
-4.876542e-008	0.0263184
-4.874042e-008	0.0256836
-4.871542e-008	0.0209717
-4.869042e-008	0.0217041
-4.866542e-008	0.0314941
-4.864042e-008	0.0411133
-4.861542e-008	0.0281494
-4.859042e-008	0.0165772
-4.856542e-008	0.0155518
-4.854042e-008	0.0184326
-4.851542e-008	0.023291
-4.849042e-008	0.0166992
-4.846542e-008	0.0227783
-4.844042e-008	0.0282959
-4.841542e-008	0.0188232
-4.839042e-008	0.0288086
-4.836542e-008	0.030835
-4.834042e-008	0.0193604
-4.831542e-008	0.0302734
-4.829042e-008	0.027124
-4.826542e-008	0.00915528
-4.824042e-008	0.0182129
-4.821542e-008	0.0227051
-4.819042e-008	0.0175537
-4.816542e-008	0.0265869
-4.814042e-008	0.0249756
-4.811542e-008	0.0150879
-4.809042e-008	0.019165
-4.806542e-008	0.0321533
-4.804042e-008	0.0318115
-4.801542e-008	0.010669
-4.799042e-008	0.0119873
-4.796542e-008	0.0393311
-4.794042e-008	0.0334229
-4.791542e-008	0.0189453
-4.789042e-008	0.0292481
-4.786542e-008	0.0277344
-4.784042e-008	0.0248779
-4.781542e-008	0.0145508
-4.779042e-008	0.00507813
-4.776542e-008	0.0260742
-4.774042e-008	0.0296143
-4.771542e-008	0.0273438
-4.769042e-008	0.0304688
-4.766542e-008	0.0236084
-4.764042e-008	0.0271484
-4.761542e-008	0.0177002
-4.759042e-008	0.0182617
-4.756542e-008	0.0295166
-4.754042e-008	0.0199951
-4.751542e-008	0.019751
-4.749042e-008	0.0205566
-4.746542e-008	0.0272949
-4.744042e-008	0.0360108
-4.741542e-008	0.0171143
-4.739042e-008	0.0147705
-4.736542e-008	0.0315918
-4.734042e-008	0.0221191
-4.731542e-008	0.0111328
-4.729042e-008	0.0129883
-4.726542e-008	0.010791
-4.724042e-008	0.0156006
-4.721542e-008	0.0161621
-4.719042e-008	0.0141602
-4.716542e-008	0.0214356
-4.714042e-008	0.0229492
-4.711542e-008	0.0264893
-4.709042e-008	0.0260986
-4.706542e-008	0.0258545
-4.704042e-008	0.0280029
-4.701542e-008	0.0124512
-4.699042e-008	0.00661622
-4.696542e-008	0.0197998
-4.694042e-008	0.0243164
-4.691542e-008	0.0180908
-4.689042e-008	0.0154541
-4.686542e-008	0.0265625
-4.684042e-008	0.0297363
-4.681542e-008	0.013501
-4.679042e-008	0.0158203
-4.676542e-008	0.021875
-4.674042e-008	0.00959473
-4.671542e-008	0.0227295
-4.669042e-008	0.0358399
-4.666542e-008	0.0253906
-4.664042e-008	0.0275635
-4.661542e-008	0.0273438
-4.659042e-008	0.0146484
-4.656542e-008	0.013916
-4.654042e-008	0.0254639
-4.651542e-008	0.0262695
-4.649042e-008	0.0274658
-4.646542e-008	0.0385986
-4.644042e-008	0.026416
-4.641542e-008	0.00998536
-4.639042e-008	0.0156982
-4.636542e-008	0.016919
-4.634042e-008	0.0181885
-4.631542e-008	0.030127
-4.629042e-008	0.0280029
-4.626542e-008	0.023877
-4.624042e-008	0.0284668
-4.621542e-008	0.0177979
-4.619042e-008	0.017041
-4.616542e-008	0.0256104
-4.614042e-008	0.0126709
-4.611542e-008	0.0148682
-4.609042e-008	0.0309326
-4.606542e-008	0.030542
-4.604042e-008	0.0312744
-4.601542e-008	0.0314697
-4.599042e-008	0.020874
-4.596542e-008	0.0124268
-4.594042e-008	0.00913087
-4.591542e-008	0.0165283
-4.589042e-008	0.0397705
-4.586542e-008	0.0451904
-4.584042e-008	0.0317627
-4.581542e-008	0.0230957
-4.579042e-008	0.0118164
-4.576542e-008	0.0131104
-4.574042e-008	0.0189209
-4.571542e-008	0.0226563
-4.569042e-008	0.0284668
-4.566542e-008	0.0120117
-4.564042e-008	0.0111572
-4.561542e-008	0.0276856
-4.559042e-008	0.0165283
-4.556542e-008	0.0173096
-4.554042e-008	0.0372803
-4.551542e-008	0.030957
-4.549042e-008	0.0174561
-4.546542e-008	0.0275879
-4.544042e-008	0.0450928
-4.541542e-008	0.0380127
-4.539042e-008	0.0149902
-4.536542e-008	0.0193359
-4.534042e-008	0.0276611
-4.531542e-008	0.0234619
-4.529042e-008	0.02229
-4.526542e-008	0.0128662
-4.524042e-008	0.0306641
-4.521542e-008	0.04104
-4.519042e-008	0.0136231
-4.516542e-008	0.0181152
-4.514042e-008	0.024585
-4.511542e-008	0.0126953
-4.509042e-008	0.0193604
-4.506542e-008	0.0342285
-4.504042e-008	0.0387695
-4.501542e-008	0.020459
-4.499042e-008	0.00959473
-4.496542e-008	0.0188721
-4.494042e-008	0.0246582
-4.491542e-008	0.0298096
-4.489042e-008	0.0273926
-4.486542e-008	0.0300293
-4.484042e-008	0.0407471
-4.481542e-008	0.0304932
-4.479042e-008	0.0209473
-4.476542e-008	0.0253174
-4.474042e-008	0.023291
-4.471542e-008	0.0244385
-4.469042e-008	0.0286133
-4.466542e-008	0.0247315
-4.464042e-008	0.0263184
-4.461542e-008	0.0254883
-4.459042e-008	0.0172607
-4.456542e-008	0.0234131
-4.454042e-008	0.0266846
-4.451542e-008	0.0227295
-4.449042e-008	0.0327637
-4.446542e-008	0.0358643
-4.444042e-008	0.0300537
-4.441542e-008	0.0268555
-4.439042e-008	0.0206543
-4.436542e-008	0.025708
-4.434042e-008	0.0321777
-4.431542e-008	0.0248535
-4.429042e-008	0.0206055
-4.426542e-008	0.0301514
-4.424042e-008	0.0441895
-4.421542e-008	0.0293701
-4.419042e-008	0.0126953
-4.416542e-008	0.0316406
-4.414042e-008	0.0298828
-4.411542e-008	0.0168213
-4.409042e-008	0.0243652
-4.406542e-008	0.0208252
-4.404042e-008	0.0319092
-4.401542e-008	0.0478027
-4.399042e-008	0.0332031
-4.396542e-008	0.0269775
-4.394042e-008	0.0239746
-4.391542e-008	0.012207
-4.389042e-008	0.0171875
-4.386542e-008	0.028833
-4.384042e-008	0.0300049
-4.381542e-008	0.0207031
-4.379042e-008	0.0151367
-4.376542e-008	0.0150879
-4.374042e-008	0.0256592
-4.371542e-008	0.0362061
-4.369042e-008	0.0179688
-4.366542e-008	0.0186279
-4.364042e-008	0.0379883
-4.361542e-008	0.0224365
-4.359042e-008	0.0123535
-4.356542e-008	0.0205078
-4.354042e-008	0.0201416
-4.351542e-008	0.023169
-4.349042e-008	0.0236572
-4.346542e-008	0.0245117
-4.344042e-008	0.0283691
-4.341542e-008	0.0147949
-4.339042e-008	0.008667
-4.336542e-008	0.0206787
-4.334042e-008	0.0214111
-4.331542e-008	0.0242676
-4.329042e-008	0.0319336
-4.326542e-008	0.0287354
-4.324042e-008	0.0225098
-4.321542e-008	0.0108399
-4.319042e-008	0.0144531
-4.316542e-008	0.028418
-4.314042e-008	0.019043
-4.311542e-008	0.0213623
-4.309042e-008	0.0262695
-4.306542e-008	0.0148926
-4.304042e-008	0.0210938
-4.301542e-008	0.0198731
-4.299042e-008	0.0165527
-4.296542e-008	0.0209229
-4.294042e-008	0.01604
-4.291542e-008	0.0178223
-4.289042e-008	0.014917
-4.286542e-008	0.0157959
-4.284042e-008	0.0174805
-4.281542e-008	0.0123291
-4.279042e-008	0.0199219
-4.276542e-008	0.0193604
-4.274042e-008	0.0165283
-4.271542e-008	0.0225586
-4.269042e-008	0.0267578
-4.266542e-008	0.0292236
-4.264042e-008	0.0250488
-4.261542e-008	0.02146
-4.259042e-008	0.0162109
-4.256542e-008	0.014502
-4.254042e-008	0.0223145
-4.251542e-008	0.0246826
-4.249042e-008	0.0183106
-4.246542e-008	0.00725098
-4.244042e-008	0.0161377
-4.241542e-008	0.0329834
-4.239042e-008	0.0232178
-4.236542e-008	0.019165
-4.234042e-008	0.0277344
-4.231542e-008	0.0302246
-4.229042e-008	0.0270752
-4.226542e-008	0.0153076
-4.224042e-008	0.0109375
-4.221542e-008	0.0123291
-4.219042e-008	0.01604
-4.216542e-008	0.0207031
-4.214042e-008	0.0144043
-4.211542e-008	0.0109619
-4.209042e-008	0.0119629
-4.206542e-008	0.0248291
-4.204042e-008	0.0377686
-4.201542e-008	0.0216065
-4.199042e-008	0.014624
-4.196542e-008	0.0249756
-4.194042e-008	0.0154053
-4.191542e-008	0.0108399
-4.189042e-008	0.0249268
-4.186542e-008	0.0276123
-4.184042e-008	0.0289795
-4.181542e-008	0.0302734
-4.179042e-008	0.0213623
-4.176542e-008	0.0251953
-4.174042e-008	0.0263672
-4.171542e-008	0.0166504
-4.169042e-008	0.0167481
-4.166542e-008	0.0202393
-4.164042e-008	0.0223633
-4.161542e-008	0.0191162
-4.159042e-008	0.0171631
-4.156542e-008	0.0220947
-4.154042e-008	0.0200928
-4.151542e-008	0.0154541
-4.149042e-008	0.0105713
-4.146542e-008	0.00251466
-4.144042e-008	0.00874024
-4.141542e-008	0.0244629
-4.139042e-008	0.026709
-4.136542e-008	0.0246826
-4.134042e-008	0.0208984
-4.131542e-008	0.0139404
-4.129042e-008	0.02229
-4.126542e-008	0.023999
-4.124042e-008	0.0097168
-4.121542e-008	0.0102783
-4.119042e-008	0.0171631
-4.116542e-008	0.0218506
-4.114042e-008	0.0224365
-4.111542e-008	0.0147461
-4.109042e-008	0.0165283
-4.106542e-008	0.0203125
-4.104042e-008	0.0183594
-4.101542e-008	0.0185059
-4.099042e-008	0.0206543
-4.096542e-008	0.0203125
-4.094042e-008	0.013916
-4.091542e-008	0.0158691
-4.089042e-008	0.0224365
-4.086542e-008	0.0307373
-4.084042e-008	0.0380127
-4.081542e-008	0.0182373
-4.079042e-008	0.00476075
-4.076542e-008	0.015918
-4.074042e-008	0.0140625
-4.071542e-008	0.02146
-4.069042e-008	0.0361572
-4.066542e-008	0.0243652
-4.064042e-008	0.0154785
-4.061542e-008	0.020752
-4.059042e-008	0.025
-4.056542e-008	0.0206787
-4.054042e-008	0.0156738
-4.051542e-008	0.0266846
-4.049042e-008	0.021582
-4.046542e-008	0.00754395
-4.044042e-008	0.0136719
-4.041542e-008	0.00817872
-4.039042e-008	0.00544434
-4.036542e-008	0.0187988
-4.034042e-008	0.0245361
-4.031542e-008	0.0249512
-4.029042e-008	0.0123047
-4.026542e-008	0.0136231
-4.024042e-008	0.0311768
-4.021542e-008	0.0210449
-4.019042e-008	0.020044
-4.016542e-008	0.0354004
-4.014042e-008	0.0208252
-4.011542e-008	0.0126953
-4.009042e-008	0.0310547
-4.006542e-008	0.0318604
-4.004042e-008	0.017627
-4.001542e-008	0.0105957
-3.999042e-008	0.0154785
-3.996542e-008	0.0260254
-3.994042e-008	0.024292
-3.991542e-008	0.0250977
-3.989042e-008	0.0277344
-3.986542e-008	0.0257813
-3.984042e-008	0.0295166
-3.981542e-008	0.0140869
-3.979042e-008	0.00786134
-3.976542e-008	0.0223389
-3.974042e-008	0.0174316
-3.971542e-008	0.0229004
-3.969042e-008	0.0265381
-3.966542e-008	0.0191406
-3.964042e-008	0.0273926
-3.961542e-008	0.0181152
-3.959042e-008	0.0186524
-3.956542e-008	0.0323975
-3.954042e-008	0.0157959
-3.951542e-008	0.00878907
-3.949042e-008	0.0162109
-3.946542e-008	0.0275635
-3.944042e-008	0.0367676
-3.941542e-008	0.0189941
-3.939042e-008	0.0155518
-3.936542e-008	0.0264893
-3.934042e-008	0.0230225
-3.931542e-008	0.0275391
-3.929042e-008	0.0210938
-3.926542e-008	0.013501
-3.924042e-008	0.0221924
-3.921542e-008	0.0113525
-3.919042e-008	0.0120117
-3.916542e-008	0.0227539
-3.914042e-008	0.0114502
-3.911542e-008	0.0150391
-3.909042e-008	0.0243897
-3.906542e-008	0.0272461
-3.904042e-008	0.0237061
-3.901542e-008	0.00983887
-3.899042e-008	0.0170654
-3.896542e-008	0.0297852
-3.894042e-008	0.0222656
-3.891542e-008	0.0101318
-3.889042e-008	0.013208
-3.886542e-008	0.0225586
-3.884042e-008	0.0229004
-3.881542e-008	0.023877
-3.879042e-008	0.02229
-3.876542e-008	0.027417
-3.874042e-008	0.036377
-3.871542e-008	0.0260254
-3.869042e-008	0.0133057
-3.866542e-008	0.0156006
-3.864042e-008	0.0183106
-3.861542e-008	0.0109375
-3.859042e-008	0.0166016
-3.856542e-008	0.029126
-3.854042e-008	0.0203857
-3.851542e-008	0.0114502
-3.849042e-008	0.0158691
-3.846542e-008	0.0300293
-3.844042e-008	0.035791
-3.841542e-008	0.0211914
-3.839042e-008	0.023291
-3.836542e-008	0.0332275
-3.834042e-008	0.0276611
-3.831542e-008	0.0238037
-3.829042e-008	0.0170166
-3.826542e-008	0.0218994
-3.824042e-008	0.0292725
-3.821542e-008	0.0134277
-3.819042e-008	0.0171143
-3.816542e-008	0.029126
-3.814042e-008	0.0177002
-3.811542e-008	0.0149658
-3.809042e-008	0.0211426
-3.806542e-008	0.0296875
-3.804042e-008	0.0320313
-3.801542e-008	0.0132568
-3.799042e-008	0.0102783
-3.796542e-008	0.0252197
-3.794042e-008	0.0233887
-3.791542e-008	0.0242188
-3.789042e-008	0.033252
-3.786542e-008	0.0280274
-3.784042e-008	0.0170166
-3.781542e-008	0.0157227
-3.779042e-008	0.0251221
-3.776542e-008	0.0293457
-3.774042e-008	0.0188477
-3.771542e-008	0.0110596
-3.769042e-008	0.0174316
-3.766542e-008	0.0259766
-3.764042e-008	0.0273193
-3.761542e-008	0.0256104
-3.759042e-008	0.027832
-3.756542e-008	0.0387207
-3.754042e-008	0.037085
-3.751542e-008	0.0216309
-3.749042e-008	0.0218018
-3.746542e-008	0.0283203
-3.744042e-008	0.0340088
-3.741542e-008	0.0304443
-3.739042e-008	0.0143311
-3.736542e-008	0.0197266
-3.734042e-008	0.0272217
-3.731542e-008	0.020459
-3.729042e-008	0.0240234
-3.726542e-008	0.0252441
-3.724042e-008	0.0276123
-3.721542e-008	0.0298828
-3.719042e-008	0.0186524
-3.716542e-008	0.0226318
-3.714042e-008	0.0250244
-3.711542e-008	0.0155029
-3.709042e-008	0.0197998
-3.706542e-008	0.0177002
-3.704042e-008	0.0216553
-3.701542e-008	0.0244141
-3.699042e-008	0.0124512
-3.696542e-008	0.0273926
-3.694042e-008	0.0335205
-3.691542e-008	0.0191406
-3.689042e-008	0.0115967
-3.686542e-008	-0.00241698
-3.684042e-008	0.00715333
-3.681542e-008	0.0172852
-3.679042e-008	0.00742188
-3.676542e-008	0.0196777
-3.674042e-008	0.021875
-3.671542e-008	0.01875
-3.669042e-008	0.0294678
-3.666542e-008	0.0270752
-3.664042e-008	0.0417481
-3.661542e-008	0.0461426
-3.659042e-008	0.0233643
-3.656542e-008	0.024707
-3.654042e-008	0.0237549
-3.651542e-008	0.0184815
-3.649042e-008	0.0186524
-3.646542e-008	0.0137695
-3.644042e-008	0.0237061
-3.641542e-008	0.0195801
-3.639042e-008	0.00827637
-3.636542e-008	0.0157715
-3.634042e-008	0.020166
-3.631542e-008	0.0293945
-3.629042e-008	0.0310303
-3.626542e-008	0.0250244
-3.624042e-008	0.0309082
-3.621542e-008	0.0279297
-3.619042e-008	0.026294
-3.616542e-008	0.0255127
-3.614042e-008	0.0152588
-3.611542e-008	0.0183838
-3.609042e-008	0.0209961
-3.606542e-008	0.0233643
-3.604042e-008	0.0321289
-3.601542e-008	0.0215088
-3.599042e-008	0.0149658
-3.596542e-008	0.0223145
-3.594042e-008	0.0222412
-3.591542e-008	0.0223877
-3.589042e-008	0.0180908
-3.586542e-008	0.0194092
-3.584042e-008	0.0244629
-3.581542e-008	0.0101563
-3.579042e-008	0.0136231
-3.576542e-008	0.0328369
-3.574042e-008	0.0262451
-3.571542e-008	0.0203125
-3.569042e-008	0.0192139
-3.566542e-008	0.0189697
-3.564042e-008	0.0279297
-3.561542e-008	0.0180664
-3.559042e-008	0.0180664
-3.556542e-008	0.0333496
-3.554042e-008	0.0223877
-3.551542e-008	0.0226807
-3.549042e-008	0.0359863
-3.546542e-008	0.0314453
-3.544042e-008	0.0315674
-3.541542e-008	0.0203857
-3.539042e-008	0.00437012
-3.536542e-008	0.0235596
-3.534042e-008	0.0355713
-3.531542e-008	0.0245361
-3.529042e-008	0.0259277
-3.526542e-008	0.0269531
-3.524042e-008	0.0178711
-3.521542e-008	0.0125488
-3.519042e-008	0.0208008
-3.516542e-008	0.0278565
-3.514042e-008	0.0180664
-3.511542e-008	0.0143066
-3.509042e-008	0.0204346
-3.506542e-008	0.0265381
-3.504042e-008	0.0256836
-3.501542e-008	0.0123779
-3.499042e-008	0.0152344
-3.496542e-008	0.0247803
-3.494042e-008	0.0150635
-3.491542e-008	0.0126953
-3.489042e-008	0.0142822
-3.486542e-008	0.0109863
-3.484042e-008	0.0174805
-3.481542e-008	0.0192139
-3.479042e-008	0.0205811
-3.476542e-008	0.027832
-3.474042e-008	0.0245361
-3.471542e-008	0.0256836
-3.469042e-008	0.0297608
-3.466542e-008	0.0230713
-3.464042e-008	0.0210205
-3.461542e-008	0.0236816
-3.459042e-008	0.0223877
-3.456542e-008	0.0123779
-3.454042e-008	0.0157227
-3.451542e-008	0.0353027
-3.449042e-008	0.0262695
-3.446542e-008	0.0230713
-3.444042e-008	0.0315186
-3.441542e-008	0.012207
-3.439042e-008	0.0224121
-3.436542e-008	0.0358399
-3.434042e-008	0.00834962
-3.431542e-008	0.0110107
-3.429042e-008	0.0234619
-3.426542e-008	0.0145752
-3.424042e-008	0.0272461
-3.421542e-008	0.0330566
-3.419042e-008	0.0256592
-3.416542e-008	0.0292481
-3.414042e-008	0.0207275
-3.411542e-008	0.0153076
-3.409042e-008	0.0187012
-3.406542e-008	0.0172363
-3.404042e-008	0.0139649
-3.401542e-008	0.00759278
-3.399042e-008	0.0157959
-3.396542e-008	0.0159424
-3.394042e-008	0.012793
-3.391542e-008	0.0314697
-3.389042e-008	0.0277588
-3.386542e-008	0.0246582
-3.384042e-008	0.0293213
-3.381542e-008	0.0108154
-3.379042e-008	0.0160645
-3.376542e-008	0.0274902
-3.374042e-008	0.0143066
-3.371542e-008	0.0110596
-3.369042e-008	0.0149414
-3.366542e-008	0.0237061
-3.364042e-008	0.0373535
-3.361542e-008	0.0317139
-3.359042e-008	0.0213379
-3.356542e-008	0.0181641
-3.354042e-008	0.0136231
-3.351542e-008	0.0171387
-3.349042e-008	0.0123047
-3.346542e-008	0.00871583
-3.344042e-008	0.0185791
-3.341542e-008	0.0132568
-3.339042e-008	0.0131348
-3.336542e-008	0.0214356
-3.334042e-008	0.0231201
-3.331542e-008	0.0177246
-3.329042e-008	0.0108399
-3.326542e-008	0.0300049
-3.324042e-008	0.0344727
-3.321542e-008	0.0166992
-3.319042e-008	0.0224365
-3.316542e-008	0.0234619
-3.314042e-008	0.0172363
-3.311542e-008	0.0219971
-3.309042e-008	0.01875
-3.306542e-008	0.0228027
-3.304042e-008	0.0336182
-3.301542e-008	0.0209717
-3.299042e-008	0.0118897
-3.296542e-008	0.0167236
-3.294042e-008	0.0245117
-3.291542e-008	0.0314941
-3.289042e-008	0.0119141
-3.286542e-008	0.0105713
-3.284042e-008	0.0291016
-3.281542e-008	0.0167969
-3.279042e-008	0.0167481
-3.276542e-008	0.025
-3.274042e-008	0.0237061
-3.271542e-008	0.0288086
-3.269042e-008	0.0194336
-3.266542e-008	0.0228272
-3.264042e-008	0.0360108
-3.261542e-008	0.0148193
-3.259042e-008	0.00532227
-3.256542e-008	0.0249024
-3.254042e-008	0.0248535
-3.251542e-008	0.019043
-3.249042e-008	0.023584
-3.246542e-008	0.025293
-3.244042e-008	0.0273926
-3.241542e-008	0.0226074
-3.239042e-008	0.0181152
-3.236542e-008	0.0249756
-3.234042e-008	0.0275635
-3.231542e-008	0.0225098
-3.229042e-008	0.0201904
-3.226542e-008	0.0254883
-3.224042e-008	0.0277588
-3.221542e-008	0.0193359
-3.219042e-008	0.0158203
-3.216542e-008	0.0202637
-3.214042e-008	0.0210449
-3.211542e-008	0.0254883
-3.209042e-008	0.0251221
-3.206542e-008	0.0158203
-3.204042e-008	0.0193115
-3.201542e-008	0.0241211
-3.199042e-008	0.021875
-3.196542e-008	0.023169
-3.194042e-008	0.0226563
-3.191542e-008	0.0177979
-3.189042e-008	0.0151611
-3.186542e-008	0.025415
-3.184042e-008	0.0313965
-3.181542e-008	0.0164307
-3.179042e-008	0.00146485
-3.176542e-008	0.00170899
-3.174042e-008	0.0223877
-3.171542e-008	0.04104
-3.169042e-008	0.0226807
-3.166542e-008	0.0125244
-3.164042e-008	0.0346191
-3.161542e-008	0.0247803
-3.159042e-008	0.0151123
-3.156542e-008	0.0307861
-3.154042e-008	0.0172852
-3.151542e-008	0.0220459
-3.149042e-008	0.0363281
-3.146542e-008	0.0229248
-3.144042e-008	0.0364258
-3.141542e-008	0.038916
-3.139042e-008	0.016626
-3.136542e-008	0.0158447
-3.134042e-008	0.0157227
-3.131542e-008	0.0173096
-3.129042e-008	0.0245606
-3.126542e-008	0.0290283
-3.124042e-008	0.0351563
-3.121542e-008	0.0276123
-3.119042e-008	0.0195557
-3.116542e-008	0.0255615
-3.114042e-008	0.026001
-3.111542e-008	0.028125
-3.109042e-008	0.0317627
-3.106542e-008	0.0251221
-3.104042e-008	0.0238525
-3.101542e-008	0.0213379
-3.099042e-008	0.018335
-3.096542e-008	0.0253418
-3.094042e-008	0.023291
-3.091542e-008	0.020044
-3.089042e-008	0.0168701
-3.086542e-008	0.0133789
-3.084042e-008	0.0288086
-3.081542e-008	0.0257568
-3.079042e-008	0.0113525
-3.076542e-008	0.0249268
-3.074042e-008	0.0261719
-3.071542e-008	0.0158447
-3.069042e-008	0.016919
-3.066542e-008	0.0229981
-3.064042e-008	0.0351807
-3.061542e-008	0.030542
-3.059042e-008	0.0202637
-3.056542e-008	0.0181397
-3.054042e-008	0.0145508
-3.051542e-008	0.0197022
-3.049042e-008	0.0226074
-3.046542e-008	0.0285889
-3.044042e-008	0.0306397
-3.041542e-008	0.0161133
-3.039042e-008	0.0200928
-3.036542e-008	0.0263428
-3.034042e-008	0.0103516
-3.031542e-008	0.00534669
-3.029042e-008	0.0158203
-3.026542e-008	0.0181885
-3.024042e-008	0.016626
-3.021542e-008	0.0190186
-3.019042e-008	0.0208252
-3.016542e-008	0.0246582
-3.014042e-008	0.0329834
-3.011542e-008	0.0377197
-3.009042e-008	0.0284668
-3.006542e-008	0.0318848
-3.004042e-008	0.040625
-3.001542e-008	0.0178955
-2.999042e-008	0.0137451
-2.996542e-008	0.0280518
-2.994042e-008	0.0153076
-2.991542e-008	0.015918
-2.989042e-008	0.0306641
-2.986542e-008	0.0269531
-2.984042e-008	0.0212158
-2.981542e-008	0.0175781
-2.979042e-008	0.018457
-2.976542e-008	0.0298828
-2.974042e-008	0.0270264
-2.971542e-008	0.0200195
-2.969042e-008	0.0209961
-2.966542e-008	0.0193359
-2.964042e-008	0.0293701
-2.961542e-008	0.0252686
-2.959042e-008	0.0148193
-2.956542e-008	0.025708
-2.954042e-008	0.0227051
-2.951542e-008	0.0229248
-2.949042e-008	0.0271484
-2.946542e-008	0.0273193
-2.944042e-008	0.0419922
-2.941542e-008	0.0211426
-2.939042e-008	-0.000366203
-2.936542e-008	0.0237305
-2.934042e-008	0.026001
-2.931542e-008	0.0150391
-2.929042e-008	0.0167969
-2.926542e-008	0.0210205
-2.924042e-008	0.0366943
-2.921542e-008	0.0270752
-2.919042e-008	0.00300294
-2.916542e-008	0.0165283
-2.914042e-008	0.0261963
-2.911542e-008	0.0123291
-2.909042e-008	0.0187744
-2.906542e-008	0.0340332
-2.904042e-008	0.0249512
-2.901542e-008	0.00512696
-2.899042e-008	0.0133057
-2.896542e-008	0.0331055
-2.894042e-008	0.0256836
-2.891542e-008	0.0205566
-2.889042e-008	0.0235352
-2.886542e-008	0.0242432
-2.884042e-008	0.026294
-2.881542e-008	0.00822755
-2.879042e-008	0.00622559
-2.876542e-008	0.0303467
-2.874042e-008	0.0317139
-2.871542e-008	0.0185547
-2.869042e-008	0.00444337
-2.866542e-008	-0.00046386
-2.864042e-008	0.0156738
-2.861542e-008	0.0167481
-2.859042e-008	0.00739747
-2.856542e-008	0.0265381
-2.854042e-008	0.04104
-2.851542e-008	0.0295166
-2.849042e-008	0.0242676
-2.846542e-008	0.032544
-2.844042e-008	0.0271973
-2.841542e-008	0.0113037
-2.839042e-008	0.0185303
-2.836542e-008	0.0239014
-2.834042e-008	0.014624
-2.831542e-008	0.0168457
-2.829042e-008	0.0173828
-2.826542e-008	0.0201416
-2.824042e-008	0.0248291
-2.821542e-008	0.018042
-2.819042e-008	0.0192627
-2.816542e-008	0.0273193
-2.814042e-008	0.0253662
-2.811542e-008	0.018335
-2.809042e-008	0.0153565
-2.806542e-008	0.0248047
-2.804042e-008	0.034082
-2.801542e-008	0.0188477
-2.799042e-008	0.0153076
-2.796542e-008	0.0283936
-2.794042e-008	0.0150391
-2.791542e-008	0.0147461
-2.789042e-008	0.0297608
-2.786542e-008	0.0307617
-2.784042e-008	0.0265869
-2.781542e-008	0.00913087
-2.779042e-008	0.00964356
-2.776542e-008	0.0198975
-2.774042e-008	0.0155518
-2.771542e-008	0.021875
-2.769042e-008	0.0260986
-2.766542e-008	0.0297363
-2.764042e-008	0.0315918
-2.761542e-008	0.0205078
-2.759042e-008	0.0144775
-2.756542e-008	0.0126221
-2.754042e-008	0.0118408
-2.751542e-008	0.0151367
-2.749042e-008	0.0241943
-2.746542e-008	0.0325195
-2.744042e-008	0.0283203
-2.741542e-008	0.0230713
-2.739042e-008	0.0235352
-2.736542e-008	0.0154785
-2.734042e-008	0.00922852
-2.731542e-008	0.023877
-2.729042e-008	0.0319824
-2.726542e-008	0.0252441
-2.724042e-008	0.0290039
-2.721542e-008	0.0310547
-2.719042e-008	0.0308838
-2.716542e-008	0.0303467
-2.714042e-008	0.0144287
-2.711542e-008	0.0184082
-2.709042e-008	0.0283203
-2.706542e-008	0.0191406
-2.704042e-008	0.028418
-2.701542e-008	0.0235352
-2.699042e-008	0.0113525
-2.696542e-008	0.026294
-2.694042e-008	0.0274414
-2.691542e-008	0.0279785
-2.689042e-008	0.0330811
-2.686542e-008	0.0291748
-2.684042e-008	0.0266602
-2.681542e-008	0.0247559
-2.679042e-008	0.0267334
-2.676542e-008	0.0182617
-2.674042e-008	0.0163818
-2.671542e-008	0.0224854
-2.669042e-008	0.0177246
-2.666542e-008	0.0290772
-2.664042e-008	0.0317627
-2.661542e-008	0.0116943
-2.659042e-008	0.0133545
-2.656542e-008	0.0284668
-2.654042e-008	0.0211914
-2.651542e-008	0.00788575
-2.649042e-008	0.0182617
-2.646542e-008	0.0193359
-2.644042e-008	0.0131836
-2.641542e-008	0.0281738
-2.639042e-008	0.0285889
-2.636542e-008	0.0199951
-2.634042e-008	0.0156738
-2.631542e-008	0.0171631
-2.629042e-008	0.0311768
-2.626542e-008	0.0288086
-2.624042e-008	0.029541
-2.621542e-008	0.0273682
-2.619042e-008	0.00913087
-2.616542e-008	0.0134277
-2.614042e-008	0.0222656
-2.611542e-008	0.029126
-2.609042e-008	0.0268799
-2.606542e-008	0.0147217
-2.604042e-008	0.0205078
-2.601542e-008	0.0171875
-2.599042e-008	0.0168701
-2.596542e-008	0.0250977
-2.594042e-008	0.0193359
-2.591542e-008	0.0286621
-2.589042e-008	0.033667
-2.586542e-008	0.0259033
-2.584042e-008	0.0323486
-2.581542e-008	0.0196533
-2.579042e-008	0.00451661
-2.576542e-008	0.0184082
-2.574042e-008	0.0241699
-2.571542e-008	0.0248535
-2.569042e-008	0.0170654
-2.566542e-008	0.0074463
-2.564042e-008	0.0252197
-2.561542e-008	0.0222168
-2.559042e-008	0.0130859
-2.556542e-008	0.0283936
-2.554042e-008	0.0253418
-2.551542e-008	0.017749
-2.549042e-008	0.0111328
-2.546542e-008	0.00859376
-2.544042e-008	0.0253174
-2.541542e-008	0.0265137
-2.539042e-008	0.0175781
-2.536542e-008	0.013794
-2.534042e-008	0.0146729
-2.531542e-008	0.0236084
-2.529042e-008	0.0162842
-2.526542e-008	0.0184082
-2.524042e-008	0.035083
-2.521542e-008	0.0201904
-2.519042e-008	0.00766602
-2.516542e-008	0.0170166
-2.514042e-008	0.0251221
-2.511542e-008	0.0283936
-2.509042e-008	0.0231445
-2.506542e-008	0.0289063
-2.504042e-008	0.0340576
-2.501542e-008	0.022583
-2.499042e-008	0.0216309
-2.496542e-008	0.024707
-2.494042e-008	0.0286377
-2.491542e-008	0.0372559
-2.489042e-008	0.0208984
-2.486542e-008	0.00964356
-2.484042e-008	0.0319824
-2.481542e-008	0.031665
-2.479042e-008	0.013501
-2.476542e-008	0.0157227
-2.474042e-008	0.0233887
-2.471542e-008	0.0218262
-2.469042e-008	0.0170899
-2.466542e-008	0.0296387
-2.464042e-008	0.0283447
-2.461542e-008	0.0106445
-2.459042e-008	0.013501
-2.456542e-008	0.0122803
-2.454042e-008	0.0179199
-2.451542e-008	0.0270508
-2.449042e-008	0.0129639
-2.446542e-008	0.0144043
-2.444042e-008	0.0278565
-2.441542e-008	0.0187012
-2.439042e-008	0.0130859
-2.436542e-008	0.0237793
-2.434042e-008	0.0200928
-2.431542e-008	0.0159912
-2.429042e-008	0.020874
-2.426542e-008	0.0143311
-2.424042e-008	0.0123047
-2.421542e-008	0.014624
-2.419042e-008	0.0134522
-2.416542e-008	0.0136475
-2.414042e-008	0.0142822
-2.411542e-008	0.0194336
-2.409042e-008	0.0118652
-2.406542e-008	0.00942384
-2.404042e-008	0.0322266
-2.401542e-008	0.0285645
-2.399042e-008	0.013794
-2.396542e-008	0.0239014
-2.394042e-008	0.0245361
-2.391542e-008	0.0211182
-2.389042e-008	0.0244385
-2.386542e-008	0.0270752
-2.384042e-008	0.024292
-2.381542e-008	0.014624
-2.379042e-008	0.0223633
-2.376542e-008	0.0238037
-2.374042e-008	0.021582
-2.371542e-008	0.0411865
-2.369042e-008	0.0287354
-2.366542e-008	0.0121826
-2.364042e-008	0.0283447
-2.361542e-008	0.0154541
-2.359042e-008	0.00622559
-2.356542e-008	0.0239014
-2.354042e-008	0.0108154
-2.351542e-008	0.00981446
-2.349042e-008	0.0270508
-2.346542e-008	0.0118408
-2.344042e-008	0.0102295
-2.341542e-008	0.0147217
-2.339042e-008	0.00664063
-2.336542e-008	0.0222412
-2.334042e-008	0.0211426
-2.331542e-008	0.0101074
-2.329042e-008	0.0227783
-2.326542e-008	0.0268799
-2.324042e-008	0.0220459
-2.321542e-008	0.00749512
-2.319042e-008	0.00131837
-2.316542e-008	0.0174072
-2.314042e-008	0.0210938
-2.311542e-008	0.0193359
-2.309042e-008	0.0151123
-2.306542e-008	0.0169678
-2.304042e-008	0.0376221
-2.301542e-008	0.0367432
-2.299042e-008	0.0222168
-2.296542e-008	0.0180176
-2.294042e-008	0.0150391
-2.291542e-008	0.0248535
-2.289042e-008	0.0304688
-2.286542e-008	0.0181641
-2.284042e-008	0.0181641
-2.281542e-008	0.0224121
-2.279042e-008	0.0211182
-2.276542e-008	0.0273682
-2.274042e-008	0.0246094
-2.271542e-008	0.023584
-2.269042e-008	0.0280029
-2.266542e-008	0.0220215
-2.264042e-008	0.024585
-2.261542e-008	0.0234375
-2.259042e-008	0.018042
-2.256542e-008	0.0182129
-2.254042e-008	0.0150879
-2.251542e-008	0.0233643
-2.249042e-008	0.0251953
-2.246542e-008	0.0256104
-2.244042e-008	0.024585
-2.241542e-008	0.00100098
-2.239042e-008	0.00292969
-2.236542e-008	0.019165
-2.234042e-008	0.0215576
-2.231542e-008	0.0262207
-2.229042e-008	0.0145508
-2.226542e-008	0.0126709
-2.224042e-008	0.0336914
-2.221542e-008	0.0266846
-2.219042e-008	0.00485841
-2.216542e-008	0.00930177
-2.214042e-008	0.0183106
-2.211542e-008	0.0178223
-2.209042e-008	0.0194824
-2.206542e-008	0.0175293
-2.204042e-008	0.0236572
-2.201542e-008	0.0333496
-2.199042e-008	0.0255127
-2.196542e-008	0.0187256
-2.194042e-008	0.0181641
-2.191542e-008	0.0157715
-2.189042e-008	0.0220459
-2.186542e-008	0.0255615
-2.184042e-008	0.014624
-2.181542e-008	0.00966798
-2.179042e-008	0.0203857
-2.176542e-008	0.0331299
-2.174042e-008	0.0286377
-2.171542e-008	0.0131592
-2.169042e-008	0.016626
-2.166542e-008	0.031958
-2.164042e-008	0.0356201
-2.161542e-008	0.0168701
-2.159042e-008	0.00424805
-2.156542e-008	0.0259277
-2.154042e-008	0.0340332
-2.151542e-008	0.0188721
-2.149042e-008	0.00893555
-2.146542e-008	0.0158203
-2.144042e-008	0.0319092
-2.141542e-008	0.020459
-2.139042e-008	0.0193848
-2.136542e-008	0.0304199
-2.134042e-008	0.020874
-2.131542e-008	0.0234375
-2.129042e-008	0.0147461
-2.126542e-008	0.00739747
-2.124042e-008	0.0154541
-2.121542e-008	0.0111816
-2.119042e-008	0.0201172
-2.116542e-008	0.025415
-2.114042e-008	0.0212158
-2.111542e-008	0.0216309
-2.109042e-008	0.0177246
-2.106542e-008	0.0190186
-2.104042e-008	0.0184326
-2.101542e-008	0.0219238
-2.099042e-008	0.0257568
-2.096542e-008	0.0220947
-2.094042e-008	0.0198486
-2.091542e-008	0.0130859
-2.089042e-008	0.0184326
-2.086542e-008	0.0300781
-2.084042e-008	0.024292
-2.081542e-008	0.0155518
-2.079042e-008	0.0186768
-2.076542e-008	0.0155762
-2.074042e-008	0.00512696
-2.071542e-008	0.0220947
-2.069042e-008	0.037085
-2.066542e-008	0.0233887
-2.064042e-008	0.019458
-2.061542e-008	0.0181885
-2.059042e-008	0.00463868
-2.056542e-008	0.00627442
-2.054042e-008	0.0202393
-2.051542e-008	0.0110352
-2.049042e-008	0.00722657
-2.046542e-008	0.03396
-2.044042e-008	0.0273682
-2.041542e-008	0.00441895
-2.039042e-008	0.0197998
-2.036542e-008	0.0265625
-2.034042e-008	0.0202637
-2.031542e-008	0.0321777
-2.029042e-008	0.0352783
-2.026542e-008	0.0224121
-2.024042e-008	0.0164795
-2.021542e-008	0.0218506
-2.019042e-008	0.0289551
-2.016542e-008	0.026001
-2.014042e-008	0.0108887
-2.011542e-008	0.00236817