# LECROYWM813Zi	51496	Waveform
# Segments	1	SegmentSize	4002
# Segment	TrigTime	TimeSinceSegment1
# #1	30-Nov-2018 17:26:15	0                 
# Time	Ampl
-5.000334e-008	0.000732426
-4.997834e-008	-0.00250244
-4.995334e-008	-0.00474853
-4.992834e-008	0.00350342
-4.990334e-008	0.00717774
-4.987834e-008	0.00378418
-4.985334e-008	0.00295411
-4.982834e-008	0.00421143
-4.980334e-008	0.0017212
-4.977834e-008	0.0017334
-4.975334e-008	0.0046875
-4.972834e-008	0.00385743
-4.970334e-008	0.000146488
-4.967834e-008	-0.0055542
-4.965334e-008	-0.00537109
-4.962834e-008	-0.00518798
-4.960334e-008	-0.00633545
-4.957834e-008	0.00158692
-4.955334e-008	-0.00235595
-4.952834e-008	-0.0124512
-4.950334e-008	-0.00134277
-4.947834e-008	0.00607911
-4.945334e-008	-0.0020874
-4.942834e-008	0.00203858
-4.940334e-008	0.00529786
-4.937834e-008	-0.00606689
-4.935334e-008	-0.00629882
-4.932834e-008	-0.00247802
-4.930334e-008	-0.00462646
-4.927834e-008	0.000683597
-4.925334e-008	0.00270996
-4.922834e-008	0.00310059
-4.920334e-008	0.00961914
-4.917834e-008	0.00424805
-4.915334e-008	-0.00307617
-4.912834e-008	-0.00170898
-4.910334e-008	-0.0014038
-4.907834e-008	0.00145264
-4.905334e-008	0.00075684
-4.902834e-008	-0.00129394
-4.900334e-008	-0.00318603
-4.897834e-008	-0.00480957
-4.895334e-008	0.00313721
-4.892834e-008	0.00344239
-4.890334e-008	-0.00340576
-4.887834e-008	-0.00401611
-4.885334e-008	-0.00433349
-4.882834e-008	-0.00410156
-4.880334e-008	-0.00384521
-4.877834e-008	-0.00107422
-4.875334e-008	0.00291748
-4.872834e-008	0.00151368
-4.870334e-008	-0.000976559
-4.867834e-008	-0.00599365
-4.865334e-008	-0.00895996
-4.862834e-008	-0.00531005
-4.860334e-008	-0.00286865
-4.857834e-008	-0.00125732
-4.855334e-008	-0.00404052
-4.852834e-008	-0.00612793
-4.850334e-008	-0.000610348
-4.847834e-008	-0.000305172
-4.845334e-008	-0.000866696
-4.842834e-008	-0.00136718
-4.840334e-008	-0.00280761
-4.837834e-008	0.00362549
-4.835334e-008	-0.00175781
-4.832834e-008	-0.00917968
-4.830334e-008	-0.000317379
-4.827834e-008	0.00130616
-4.825334e-008	-0.000390621
-4.822834e-008	0.00161133
-4.820334e-008	0.0031128
-4.817834e-008	0.00446778
-4.815334e-008	-0.00253906
-4.812834e-008	-0.00319824
-4.810334e-008	0.00487061
-4.807834e-008	0.0043335
-4.805334e-008	0.00181885
-4.802834e-008	0.00042725
-4.800334e-008	-0.00406494
-4.797834e-008	-0.0052124
-4.795334e-008	0.00371094
-4.792834e-008	0.00887452
-4.790334e-008	-9.76525e-005
-4.787834e-008	-0.00324707
-4.785334e-008	0.000195316
-4.782834e-008	-0.00360107
-4.780334e-008	-0.000878903
-4.777834e-008	0.00560303
-4.775334e-008	-0.000317379
-4.772834e-008	-0.00485839
-4.770334e-008	-0.00251464
-4.767834e-008	7.32459e-005
-4.765334e-008	0.000329594
-4.762834e-008	-0.00212402
-4.760334e-008	0.000195316
-4.757834e-008	0.0029419
-4.755334e-008	0.00167237
-4.752834e-008	0.000683597
-4.750334e-008	0.000463871
-4.747834e-008	-0.00285644
-4.745334e-008	-0.00767822
-4.742834e-008	-0.000708004
-4.740334e-008	0.00771485
-4.737834e-008	0.00130616
-4.735334e-008	-0.00289306
-4.732834e-008	-0.00148925
-4.730334e-008	-0.00482177
-4.727834e-008	-0.00683593
-4.725334e-008	-0.00540771
-4.722834e-008	-0.00155029
-4.720334e-008	0.000659183
-4.717834e-008	0.000366215
-4.715334e-008	0.000830082
-4.712834e-008	-0.00184326
-4.710334e-008	-0.000781246
-4.707834e-008	0.00373536
-4.705334e-008	-0.00202636
-4.702834e-008	-0.00447998
-4.700334e-008	0.00355225
-4.697834e-008	0.00489502
-4.695334e-008	-0.00128173
-4.692834e-008	-0.00594482
-4.690334e-008	-0.000830074
-4.687834e-008	0.005542
-4.685334e-008	-9.76525e-005
-4.682834e-008	-0.00419922
-4.680334e-008	-0.00203857
-4.677834e-008	-0.00230713
-4.675334e-008	-0.00483398
-4.672834e-008	-0.00810547
-4.670334e-008	-0.00314941
-4.667834e-008	0.00588379
-4.665334e-008	0.00510254
-4.662834e-008	0.00280762
-4.660334e-008	0.00291748
-4.657834e-008	-0.000329586
-4.655334e-008	-0.00500488
-4.652834e-008	-0.00749511
-4.650334e-008	-0.00283203
-4.647834e-008	0.00274659
-4.645334e-008	0.00238037
-4.642834e-008	-0.000939938
-4.640334e-008	-0.00136718
-4.637834e-008	0.0050293
-4.635334e-008	0.00529786
-4.632834e-008	0.00244141
-4.630334e-008	0.00456543
-4.627834e-008	0.00170899
-4.625334e-008	0.000561527
-4.622834e-008	0.000366215
-4.620334e-008	-0.000708004
-4.617834e-008	-0.000769039
-4.615334e-008	-0.00533447
-4.612834e-008	-0.00322265
-4.610334e-008	0.00219727
-4.607834e-008	0.00186768
-4.605334e-008	0.00231934
-4.602834e-008	-0.000402828
-4.600334e-008	-0.00201416
-4.597834e-008	0.000512699
-4.595334e-008	-0.00496826
-4.592834e-008	-0.00513916
-4.590334e-008	0.0015503
-4.587834e-008	-0.00531005
-4.585334e-008	-0.00432129
-4.582834e-008	0.00366211
-4.580334e-008	-0.00472412
-4.577834e-008	-0.0067749
-4.575334e-008	-0.00203857
-4.572834e-008	-0.00460205
-4.570334e-008	-0.00386963
-4.567834e-008	3.72529e-009
-4.565334e-008	-0.0024292
-4.562834e-008	-0.0085083
-4.560334e-008	-9.76525e-005
-4.557834e-008	0.00958252
-4.555334e-008	0.00214844
-4.552834e-008	-0.00202636
-4.550334e-008	-0.00144043
-4.547834e-008	-0.0052124
-4.545334e-008	-0.0029541
-4.542834e-008	-0.0019165
-4.540334e-008	-0.00922851
-4.537834e-008	-0.00336914
-4.535334e-008	0.00632325
-4.532834e-008	-0.000122067
-4.530334e-008	-0.00162353
-4.527834e-008	0.00184327
-4.525334e-008	-0.0022705
-4.522834e-008	-0.00427246
-4.520334e-008	-0.00324707
-4.517834e-008	0.00139161
-4.515334e-008	0.00438233
-4.512834e-008	-0.000976559
-4.510334e-008	-0.000671383
-4.507834e-008	0.000817875
-4.505334e-008	-0.00201416
-4.502834e-008	-0.00180664
-4.500334e-008	-0.00622558
-4.497834e-008	-0.00699463
-4.495334e-008	-0.00107422
-4.492834e-008	0.000708012
-4.490334e-008	0.00341797
-4.487834e-008	0.00316162
-4.485334e-008	-0.00257568
-4.482834e-008	-0.00426025
-4.480334e-008	-0.000512692
-4.477834e-008	0.00372315
-4.475334e-008	-0.000708004
-4.472834e-008	-0.00642089
-4.470334e-008	-0.00117187
-4.467834e-008	-0.00190429
-4.465334e-008	-0.00684814
-4.462834e-008	-0.00262451
-4.460334e-008	-0.00393066
-4.457834e-008	-0.00699463
-4.455334e-008	-0.000195309
-4.452834e-008	0.00461426
-4.450334e-008	0.00364991
-4.447834e-008	0.00285645
-4.445334e-008	0.000903324
-4.442834e-008	-0.00272216
-4.440334e-008	-0.00401611
-4.437834e-008	0.00170899
-4.435334e-008	0.00490723
-4.432834e-008	-0.00371093
-4.430334e-008	-0.00482177
-4.427834e-008	0.00330811
-4.425334e-008	-0.000146481
-4.422834e-008	-0.00473632
-4.420334e-008	-0.00089111
-4.417834e-008	0.000451664
-4.415334e-008	-0.000170895
-4.412834e-008	-0.000866696
-4.410334e-008	0.00252686
-4.407834e-008	0.00632325
-4.405334e-008	0.000146488
-4.402834e-008	0.00252686
-4.400334e-008	0.0046753
-4.397834e-008	-0.00583496
-4.395334e-008	-0.0057373
-4.392834e-008	-0.00402832
-4.390334e-008	-0.00100097
-4.387834e-008	0.00267334
-4.385334e-008	-0.00479736
-4.382834e-008	-0.00223388
-4.380334e-008	0.00146485
-4.377834e-008	-0.00270996
-4.375334e-008	-0.00106201
-4.372834e-008	-0.00123291
-4.370334e-008	0.000708012
-4.367834e-008	0.00527344
-4.365334e-008	-0.000476071
-4.362834e-008	-0.00129394
-4.360334e-008	0.0046875
-4.357834e-008	-0.000305172
-4.355334e-008	-0.00305175
-4.352834e-008	-0.00222168
-4.350334e-008	-0.00324707
-4.347834e-008	0.000244144
-4.345334e-008	-0.00423584
-4.342834e-008	-0.00959472
-4.340334e-008	-0.00275879
-4.337834e-008	0.00345459
-4.335334e-008	0.00323487
-4.332834e-008	0.00113526
-4.330334e-008	-0.00190429
-4.327834e-008	-0.00194091
-4.325334e-008	0.000866703
-4.322834e-008	-0.00161132
-4.320334e-008	-0.00173339
-4.317834e-008	0.00313721
-4.315334e-008	-0.000354
-4.312834e-008	-0.00589599
-4.310334e-008	-0.0040039
-4.307834e-008	-0.00148925
-4.305334e-008	-0.0046875
-4.302834e-008	-0.00526123
-4.300334e-008	0.00106202
-4.297834e-008	0.000610355
-4.295334e-008	-0.00234375
-4.292834e-008	-0.00161132
-4.290334e-008	-0.00166015
-4.287834e-008	0.000842289
-4.285334e-008	-0.00169677
-4.282834e-008	-0.00333252
-4.280334e-008	0.00335694
-4.277834e-008	-0.000439449
-4.275334e-008	-0.0046997
-4.272834e-008	0.00202637
-4.270334e-008	0.00430909
-4.267834e-008	0.00130616
-4.265334e-008	-0.00426025
-4.262834e-008	-0.0017456
-4.260334e-008	0.00557862
-4.257834e-008	-0.000720211
-4.255334e-008	-0.00755615
-4.252834e-008	-0.00698242
-4.250334e-008	-0.003479
-4.247834e-008	0.00373536
-4.245334e-008	0.00565186
-4.242834e-008	0.000341801
-4.240334e-008	-0.00267334
-4.237834e-008	-0.00524902
-4.235334e-008	-0.00235595
-4.232834e-008	0.00609131
-4.230334e-008	0.000476078
-4.227834e-008	-0.000720211
-4.225334e-008	0.00512696
-4.222834e-008	-0.00260009
-4.220334e-008	-0.003125
-4.217834e-008	-0.000366207
-4.215334e-008	-0.00308838
-4.212834e-008	-0.00316162
-4.210334e-008	-0.00211181
-4.207834e-008	0.00235596
-4.205334e-008	0.000378422
-4.202834e-008	0.000451664
-4.200334e-008	0.00499268
-4.197834e-008	-4.88244e-005
-4.195334e-008	-0.000854488
-4.192834e-008	-0.000659176
-4.190334e-008	0.000976566
-4.187834e-008	0.00722657
-4.185334e-008	0.00181885
-4.182834e-008	-0.000939938
-4.180334e-008	6.10389e-005
-4.177834e-008	-0.00600586
-4.175334e-008	-0.00422363
-4.172834e-008	0.00168457
-4.170334e-008	3.72529e-009
-4.167834e-008	-0.00618896
-4.165334e-008	-0.00401611
-4.162834e-008	0.00808106
-4.160334e-008	0.00684815
-4.157834e-008	-0.000170895
-4.155334e-008	-0.000158688
-4.152834e-008	-0.0067749
-4.150334e-008	-0.00738525
-4.147834e-008	-0.00275879
-4.145334e-008	-0.0013916
-4.142834e-008	-0.000854488
-4.140334e-008	-0.00612793
-4.137834e-008	-0.00173339
-4.135334e-008	0.00197754
-4.132834e-008	-0.00250244
-4.130334e-008	0.000463871
-4.127834e-008	0.00213623
-4.125334e-008	0.00117188
-4.122834e-008	-0.00388183
-4.120334e-008	-0.00137939
-4.117834e-008	0.00549317
-4.115334e-008	-0.00211181
-4.112834e-008	-0.00175781
-4.110334e-008	-0.000158688
-4.107834e-008	-0.00612793
-4.105334e-008	-0.00145263
-4.102834e-008	0.0032959
-4.100334e-008	0.00461426
-4.097834e-008	0.00495606
-4.095334e-008	-0.00133056
-4.092834e-008	-0.00378418
-4.090334e-008	0.00444336
-4.087834e-008	0.00733643
-4.085334e-008	0.00139161
-4.082834e-008	0.00170899
-4.080334e-008	0.00463868
-4.077834e-008	0.000659183
-4.075334e-008	-0.00811767
-4.072834e-008	-0.0109253
-4.070334e-008	-0.00394287
-4.067834e-008	0.000830082
-4.065334e-008	-0.000512692
-4.062834e-008	-0.00343017
-4.060334e-008	-0.00216064
-4.057834e-008	-0.00217285
-4.055334e-008	-0.00279541
-4.052834e-008	0.00272217
-4.050334e-008	-0.000427242
-4.047834e-008	-0.00294189
-4.045334e-008	0.0038208
-4.042834e-008	0.00227051
-4.040334e-008	-0.000524899
-4.037834e-008	0.00372315
-4.035334e-008	0.00402832
-4.032834e-008	-0.00131836
-4.030334e-008	-0.00389404
-4.027834e-008	-0.00689697
-4.025334e-008	-0.00700683
-4.022834e-008	-0.00231933
-4.020334e-008	-0.000830074
-4.017834e-008	0.00527344
-4.015334e-008	0.00529786
-4.012834e-008	-0.00349121
-4.010334e-008	-0.00181884
-4.007834e-008	0.00152588
-4.005334e-008	-0.000219723
-4.002834e-008	-0.00211181
-4.000334e-008	0.000976566
-3.997834e-008	0.00449219
-3.995334e-008	-0.00333252
-3.992834e-008	-0.0052124
-3.990334e-008	0.00394287
-3.987834e-008	0.00183106
-3.985334e-008	-0.0053955
-3.982834e-008	-0.00100097
-3.980334e-008	0.00465088
-3.977834e-008	0.00456543
-3.975334e-008	0.00361329
-3.972834e-008	-0.00205078
-3.970334e-008	7.32459e-005
-3.967834e-008	0.0076294
-3.965334e-008	0.00205079
-3.962834e-008	-0.00327148
-3.960334e-008	-0.00480957
-3.957834e-008	-0.00620117
-3.955334e-008	0.00129395
-3.952834e-008	0.00725098
-3.950334e-008	0.000976566
-3.947834e-008	-0.00306396
-3.945334e-008	-0.0024414
-3.942834e-008	-0.00683593
-3.940334e-008	-0.00367431
-3.937834e-008	0.00435791
-3.935334e-008	0.00145264
-3.932834e-008	-0.00163574
-3.930334e-008	0.00118409
-3.927834e-008	0.000341801
-3.925334e-008	0.00067139
-3.922834e-008	-0.000146481
-3.920334e-008	-0.0038208
-3.917834e-008	0.00264893
-3.915334e-008	0.00258789
-3.912834e-008	-0.0040039
-3.910334e-008	-0.000122067
-3.907834e-008	1.22108e-005
-3.905334e-008	-0.000524899
-3.902834e-008	0.00322266
-3.900334e-008	0.0020752
-3.897834e-008	0.00212403
-3.895334e-008	0.00161133
-3.892834e-008	-0.00214843
-3.890334e-008	0.00122071
-3.887834e-008	0.00490723
-3.885334e-008	0.00104981
-3.882834e-008	0.00295411
-3.880334e-008	0.00620118
-3.877834e-008	-0.00170898
-3.875334e-008	-0.0059082
-3.872834e-008	-0.00341797
-3.870334e-008	-0.00175781
-3.867834e-008	0.00239258
-3.865334e-008	0.00216065
-3.862834e-008	-0.00080566
-3.860334e-008	0.00281983
-3.857834e-008	0.00421143
-3.855334e-008	-0.000170895
-3.852834e-008	-9.76525e-005
-3.850334e-008	0.00250245
-3.847834e-008	0.00395508
-3.845334e-008	0.00441895
-3.842834e-008	-0.00151367
-3.840334e-008	-0.0055664
-3.837834e-008	0.00042725
-3.835334e-008	0.00185547
-3.832834e-008	-0.00181884
-3.830334e-008	0.000646976
-3.827834e-008	0.000183109
-3.825334e-008	-0.0041748
-3.822834e-008	-0.00355224
-3.820334e-008	0.00373536
-3.817834e-008	0.00415039
-3.815334e-008	-0.00511474
-3.812834e-008	-0.00223388
-3.810334e-008	0.00318604
-3.807834e-008	0.00144043
-3.805334e-008	0.00310059
-3.802834e-008	-0.000122067
-3.800334e-008	-0.00584716
-3.797834e-008	-0.003833
-3.795334e-008	-0.00184326
-3.792834e-008	-0.00549316
-3.790334e-008	-0.00167236
-3.787834e-008	0.00531006
-3.785334e-008	-0.00249023
-3.782834e-008	-0.00700683
-3.780334e-008	-0.00281982
-3.777834e-008	-0.00428466
-3.775334e-008	-0.000964352
-3.772834e-008	0.00322266
-3.770334e-008	-0.00146484
-3.767834e-008	-0.00220947
-3.765334e-008	0.00123291
-3.762834e-008	-0.00216064
-3.760334e-008	-0.00396728
-3.757834e-008	0.00426026
-3.755334e-008	0.00720215
-3.752834e-008	0.000817875
-3.750334e-008	-0.000280758
-3.747834e-008	0.00030518
-3.745334e-008	-0.00340576
-3.742834e-008	-0.00089111
-3.740334e-008	0.00200196
-3.737834e-008	-0.00268554
-3.735334e-008	-0.000634762
-3.732834e-008	-0.000659176
-3.730334e-008	-0.00286865
-3.727834e-008	0.00532227
-3.725334e-008	0.00366211
-3.722834e-008	-0.00373535
-3.720334e-008	-0.00655517
-3.717834e-008	-0.00644531
-3.715334e-008	0.000842289
-3.712834e-008	0.000891117
-3.710334e-008	-0.00264892
-3.707834e-008	0.00113526
-3.705334e-008	0.00230713
-3.702834e-008	-0.00255127
-3.700334e-008	-0.00366211
-3.697834e-008	0.00411377
-3.695334e-008	0.00733643
-3.692834e-008	-0.00119629
-3.690334e-008	-0.00339355
-3.687834e-008	0.00247803
-3.685334e-008	-0.00307617
-3.682834e-008	-0.00428466
-3.680334e-008	0.00361329
-3.677834e-008	-0.00352783
-3.675334e-008	-0.00478515
-3.672834e-008	0.00395508
-3.670334e-008	0.000463871
-3.667834e-008	-0.00080566
-3.665334e-008	-0.00136718
-3.662834e-008	-0.00159912
-3.660334e-008	0.00227051
-3.657834e-008	-0.00449218
-3.655334e-008	-0.00520019
-3.652834e-008	0.0012085
-3.650334e-008	0.00211182
-3.647834e-008	0.00267334
-3.645334e-008	-0.00224609
-3.642834e-008	-0.00201416
-3.640334e-008	0.00379639
-3.637834e-008	-0.00310058
-3.635334e-008	-0.0113159
-3.632834e-008	-0.00853271
-3.630334e-008	-0.00419922
-3.627834e-008	0.00111084
-3.625334e-008	0.00369873
-3.622834e-008	-0.00123291
-3.620334e-008	-0.0024414
-3.617834e-008	-0.00369873
-3.615334e-008	-0.0033081
-3.612834e-008	0.00489502
-3.610334e-008	0.00664063
-3.607834e-008	0.0015625
-3.605334e-008	-0.00500488
-3.602834e-008	-0.00633545
-3.600334e-008	-0.00187988
-3.597834e-008	-0.00418701
-3.595334e-008	-0.00130615
-3.592834e-008	0.00638428
-3.590334e-008	0.00546875
-3.587834e-008	0.0036377
-3.585334e-008	-0.0017456
-3.582834e-008	-0.00194091
-3.580334e-008	0.00252686
-3.577834e-008	-0.00275879
-3.575334e-008	-4.88244e-005
-3.572834e-008	0.00544434
-3.570334e-008	0.000561527
-3.567834e-008	-0.000122067
-3.565334e-008	0.000463871
-3.562834e-008	-0.0055542
-3.560334e-008	-0.00634765
-3.557834e-008	0.00180664
-3.555334e-008	-0.000415035
-3.552834e-008	-0.00787353
-3.550334e-008	-0.00147705
-3.547834e-008	0.000720219
-3.545334e-008	-0.0024414
-3.542834e-008	0.00437012
-3.540334e-008	0.00541993
-3.537834e-008	-0.0014038
-3.535334e-008	-0.00141601
-3.532834e-008	0.00075684
-3.530334e-008	-0.00252685
-3.527834e-008	-0.00169677
-3.525334e-008	9.766e-005
-3.522834e-008	-0.00684814
-3.520334e-008	-0.00438232
-3.517834e-008	0.00168457
-3.515334e-008	-0.00222168
-3.512834e-008	-0.0024292
-3.510334e-008	-0.00134277
-3.507834e-008	0.000170902
-3.505334e-008	0.00408936
-3.502834e-008	-0.00056152
-3.500334e-008	-0.00715332
-3.497834e-008	0.00213623
-3.495334e-008	0.00961914
-3.492834e-008	-0.0024292
-3.490334e-008	-0.00246582
-3.487834e-008	0.00321045
-3.485334e-008	-0.0109863
-3.482834e-008	-0.0112305
-3.480334e-008	0.00351563
-3.477834e-008	0.0046875
-3.475334e-008	-0.000927731
-3.472834e-008	-0.00516357
-3.470334e-008	-0.00332031
-3.467834e-008	0.0015625
-3.465334e-008	0.000854496
-3.462834e-008	-0.00286865
-3.460334e-008	-0.00454101
-3.457834e-008	-0.00437011
-3.455334e-008	-0.00427246
-3.452834e-008	-0.00246582
-3.450334e-008	-0.000305172
-3.447834e-008	-0.0017456
-3.445334e-008	-0.00198974
-3.442834e-008	0.00140381
-3.440334e-008	0.0038208
-3.437834e-008	0.00218506
-3.435334e-008	-0.00164795
-3.432834e-008	-0.00195312
-3.430334e-008	-0.00155029
-3.427834e-008	0.000146488
-3.425334e-008	0.00322266
-3.422834e-008	-3.66174e-005
-3.420334e-008	-0.00310058
-3.417834e-008	-0.00172119
-3.415334e-008	0.000415043
-3.412834e-008	0.000292972
-3.410334e-008	0.000891117
-3.407834e-008	0.00743409
-3.405334e-008	0.00705567
-3.402834e-008	-0.00152588
-3.400334e-008	-0.00466308
-3.397834e-008	-0.00427246
-3.395334e-008	-0.00499267
-3.392834e-008	-0.00482177
-3.390334e-008	0.000244144
-3.387834e-008	0.00487061
-3.385334e-008	0.00218506
-3.382834e-008	-0.00288086
-3.380334e-008	-0.00634765
-3.377834e-008	-0.00339355
-3.375334e-008	0.000903324
-3.372834e-008	-0.000207516
-3.370334e-008	0.00113526
-3.367834e-008	0.00292969
-3.365334e-008	0.00402832
-3.362834e-008	0.00269776
-3.360334e-008	-0.00258789
-3.357834e-008	-0.00198974
-3.355334e-008	0.000451664
-3.352834e-008	-0.0010498
-3.350334e-008	1.22108e-005
-3.347834e-008	0.00456543
-3.345334e-008	0.0041626
-3.342834e-008	-0.00155029
-3.340334e-008	-0.00152588
-3.337834e-008	0.00316162
-3.335334e-008	-0.000793453
-3.332834e-008	-0.00601806
-3.330334e-008	-0.000158688
-3.327834e-008	0.00246582
-3.325334e-008	-0.0033081
-3.322834e-008	-0.00656738
-3.320334e-008	-0.0060791
-3.317834e-008	-0.00344238
-3.315334e-008	-0.00422363
-3.312834e-008	-0.00753173
-3.310334e-008	0.00118409
-3.307834e-008	0.00761719
-3.305334e-008	-0.00196533
-3.302834e-008	-0.0015747
-3.300334e-008	0.00140381
-3.297834e-008	-0.00247802
-3.295334e-008	0.00302735
-3.292834e-008	0.00388184
-3.290334e-008	-0.00202636
-3.287834e-008	-0.00467529
-3.285334e-008	-0.0022705
-3.282834e-008	0.000439457
-3.280334e-008	-0.00206298
-3.277834e-008	0.00317383
-3.275334e-008	0.00761719
-3.272834e-008	0.000451664
-3.270334e-008	0.000573734
-3.267834e-008	0.00487061
-3.265334e-008	-0.000903317
-3.262834e-008	0.000268558
-3.260334e-008	0.00440674
-3.257834e-008	-0.00384521
-3.255334e-008	-0.00327148
-3.252834e-008	0.00152588
-3.250334e-008	-0.00289306
-3.247834e-008	-0.00489502
-3.245334e-008	-0.00620117
-3.242834e-008	-0.00737304
-3.240334e-008	-0.00230713
-3.237834e-008	0.00330811
-3.235334e-008	0.000952152
-3.232834e-008	0.00142823
-3.230334e-008	0.00419922
-3.227834e-008	-0.0022705
-3.225334e-008	-0.00474853
-3.222834e-008	-0.000329586
-3.220334e-008	0.0026001
-3.217834e-008	8.54529e-005
-3.215334e-008	-0.00778808
-3.212834e-008	-0.0102905
-3.210334e-008	-0.00483398
-3.207834e-008	-0.00151367
-3.205334e-008	-0.000280758
-3.202834e-008	0.00289307
-3.200334e-008	0.000634769
-3.197834e-008	0.000366215
-3.195334e-008	0.00354004
-3.192834e-008	0.00122071
-3.190334e-008	0.000451664
-3.187834e-008	-0.00423584
-3.185334e-008	-0.0100708
-3.182834e-008	-0.0055542
-3.180334e-008	-0.00128173
-3.177834e-008	-0.00212402
-3.175334e-008	-0.000549313
-3.172834e-008	1.22108e-005
-3.170334e-008	-0.00760498
-3.167834e-008	-0.0110962
-3.165334e-008	-0.00386963
-3.162834e-008	0.00189209
-3.160334e-008	0.00087891
-3.157834e-008	-0.00115966
-3.155334e-008	-0.00162353
-3.152834e-008	-0.00439453
-3.150334e-008	-0.00372314
-3.147834e-008	0.00297852
-3.145334e-008	0.00291748
-3.142834e-008	-0.00175781
-3.140334e-008	0.000195316
-3.137834e-008	0.00100098
-3.135334e-008	-0.00288086
-3.132834e-008	-0.00544433
-3.130334e-008	-0.00260009
-3.127834e-008	0.00330811
-3.125334e-008	0.00290528
-3.122834e-008	-0.000256344
-3.120334e-008	-0.00125732
-3.117834e-008	-0.00546875
-3.115334e-008	-0.00786132
-3.112834e-008	-0.00128173
-3.110334e-008	0.00126953
-3.107834e-008	-0.00290527
-3.105334e-008	-0.00410156
-3.102834e-008	-0.000903317
-3.100334e-008	0.00305176
-3.097834e-008	-0.0013916
-3.095334e-008	-0.00725097
-3.092834e-008	-0.00427246
-3.090334e-008	0.00139161
-3.087834e-008	0.000830082
-3.085334e-008	0.000659183
-3.082834e-008	0.00551758
-3.080334e-008	0.00469971
-3.077834e-008	0.00131836
-3.075334e-008	0.00112305
-3.072834e-008	0.00284424
-3.070334e-008	0.00261231
-3.067834e-008	-0.000903317
-3.065334e-008	-0.00334472
-3.062834e-008	-0.00181884
-3.060334e-008	0.0013794
-3.057834e-008	-0.00240478
-3.055334e-008	-0.00511474
-3.052834e-008	-0.00319824
-3.050334e-008	-0.000939938
-3.047834e-008	0.00548096
-3.045334e-008	0.00524903
-3.042834e-008	0.00219727
-3.040334e-008	0.00482178
-3.037834e-008	-0.00111084
-3.035334e-008	-0.00744629
-3.032834e-008	-0.00103759
-3.030334e-008	0.0024292
-3.027834e-008	-0.00126953
-3.025334e-008	0.00030518
-3.022834e-008	0.00174561
-3.020334e-008	-0.00308838
-3.017834e-008	-0.00209961
-3.015334e-008	0.00405274
-3.012834e-008	0.00327149
-3.010334e-008	-0.00212402
-3.007834e-008	-0.00257568
-3.005334e-008	0.00279541
-3.002834e-008	0.00377198
-3.000334e-008	0.00206299
-2.997834e-008	0.00839844
-2.995334e-008	0.00527344
-2.992834e-008	-0.0115723
-2.990334e-008	-0.00864257
-2.987834e-008	0.00187989
-2.985334e-008	-0.00603027
-2.982834e-008	-0.00928955
-2.980334e-008	-0.000500485
-2.977834e-008	0.00501709
-2.975334e-008	0.00483399
-2.972834e-008	0.00122071
-2.970334e-008	-0.0015747
-2.967834e-008	-0.00211181
-2.965334e-008	-0.00185547
-2.962834e-008	-0.00152588
-2.960334e-008	-0.00186767
-2.957834e-008	-0.00305175
-2.955334e-008	-0.00207519
-2.952834e-008	0.00417481
-2.950334e-008	0.00633545
-2.947834e-008	0.00183106
-2.945334e-008	0.00249024
-2.942834e-008	0.00429688
-2.940334e-008	0.00191651
-2.937834e-008	0.00229493
-2.935334e-008	-0.00124511
-2.932834e-008	-0.00689697
-2.930334e-008	-0.000756832
-2.927834e-008	-0.000512692
-2.925334e-008	-0.00761718
-2.922834e-008	0.000866703
-2.920334e-008	0.00551758
-2.917834e-008	-0.00142822
-2.915334e-008	-0.00166015
-2.912834e-008	-0.00100097
-2.910334e-008	-0.00283203
-2.907834e-008	-0.000988766
-2.905334e-008	0.000268558
-2.902834e-008	-0.00443115
-2.900334e-008	-0.00183105
-2.897834e-008	0.00570069
-2.895334e-008	0.00289307
-2.892834e-008	-0.000158688
-2.890334e-008	-0.000817867
-2.887834e-008	0.00285645
-2.885334e-008	0.00186768
-2.882834e-008	-0.00933838
-2.880334e-008	-0.00418701
-2.877834e-008	0.000988773
-2.875334e-008	-0.00566406
-2.872834e-008	-0.00147705
-2.870334e-008	0.00405274
-2.867834e-008	0.00368653
-2.865334e-008	0.000744633
-2.862834e-008	0.000781254
-2.860334e-008	0.00249024
-2.857834e-008	-0.00270996
-2.855334e-008	-0.00523681
-2.852834e-008	-0.0053833
-2.850334e-008	-0.000854488
-2.847834e-008	0.0079834
-2.845334e-008	0.00167237
-2.842834e-008	-0.00500488
-2.840334e-008	0.00355225
-2.837834e-008	0.00759278
-2.835334e-008	0.00134278
-2.832834e-008	-0.0060791
-2.830334e-008	-0.00577392
-2.827834e-008	-0.000122067
-2.825334e-008	-0.00268554
-2.822834e-008	-0.00386963
-2.820334e-008	0.00349121
-2.817834e-008	0.00427246
-2.815334e-008	-0.000610348
-2.812834e-008	-0.00192871
-2.810334e-008	0.000329594
-2.807834e-008	0.0024292
-2.805334e-008	-6.10314e-005
-2.802834e-008	-0.00228271
-2.800334e-008	0.000939945
-2.797834e-008	-0.000854488
-2.795334e-008	-0.00948486
-2.792834e-008	-0.00870361
-2.790334e-008	-0.000500485
-2.787834e-008	0.00296631
-2.785334e-008	-0.00245361
-2.782834e-008	-0.00789795
-2.780334e-008	-0.00151367
-2.777834e-008	0.000988773
-2.775334e-008	0.00140381
-2.772834e-008	0.00556641
-2.770334e-008	-0.000476071
-2.767834e-008	-0.000488278
-2.765334e-008	0.00109864
-2.762834e-008	-0.00704345
-2.760334e-008	-0.00389404
-2.757834e-008	0.00123291
-2.755334e-008	-0.00023193
-2.752834e-008	0.00108643
-2.750334e-008	-0.00189209
-2.747834e-008	-0.00467529
-2.745334e-008	-0.00155029
-2.742834e-008	-0.000927731
-2.740334e-008	-0.00172119
-2.737834e-008	-0.00444336
-2.735334e-008	-0.00627441
-2.732834e-008	-0.000842281
-2.730334e-008	0.0020752
-2.727834e-008	0.000183109
-2.725334e-008	-0.00162353
-2.722834e-008	0.00142823
-2.720334e-008	0.00506592
-2.717834e-008	-0.00228271
-2.715334e-008	-0.00727539
-2.712834e-008	-0.00423584
-2.710334e-008	0.000439457
-2.707834e-008	0.0024292
-2.705334e-008	-0.00408935
-2.702834e-008	-0.00161132
-2.700334e-008	0.00325928
-2.697834e-008	-0.00485839
-2.695334e-008	-0.00895996
-2.692834e-008	-0.00904541
-2.690334e-008	-0.00262451
-2.687834e-008	0.0065918
-2.685334e-008	0.00075684
-2.682834e-008	-0.00477295
-2.680334e-008	-0.000744625
-2.677834e-008	0.00344239
-2.675334e-008	0.0034668
-2.672834e-008	-0.00177002
-2.670334e-008	-0.00179443
-2.667834e-008	0.00218506
-2.665334e-008	-0.000134274
-2.662834e-008	0.000854496
-2.660334e-008	0.00202637
-2.657834e-008	-0.00292968
-2.655334e-008	0.000158695
-2.652834e-008	0.00125733
-2.650334e-008	-0.00506591
-2.647834e-008	-0.00423584
-2.645334e-008	-0.003833
-2.642834e-008	-0.00714111
-2.640334e-008	-0.00533447
-2.637834e-008	-0.00080566
-2.635334e-008	-0.00120849
-2.632834e-008	-0.00408935
-2.630334e-008	-0.00289306
-2.627834e-008	-0.000708004
-2.625334e-008	-0.00446777
-2.622834e-008	-0.00474853
-2.620334e-008	0.00686036
-2.617834e-008	0.00773926
-2.615334e-008	-0.00361328
-2.612834e-008	-0.00480957
-2.610334e-008	0.000158695
-2.607834e-008	0.00223389
-2.605334e-008	0.00357666
-2.602834e-008	0.00454102
-2.600334e-008	0.00169678
-2.597834e-008	0.0010376
-2.595334e-008	0.00528565
-2.592834e-008	0.00548096
-2.590334e-008	-0.000341793
-2.587834e-008	-0.00240478
-2.585334e-008	-0.00112304
-2.582834e-008	-0.00718994
-2.580334e-008	-0.00750732
-2.577834e-008	-0.000854488
-2.575334e-008	8.54529e-005
-2.572834e-008	-0.000256344
-2.570334e-008	-0.000695797
-2.567834e-008	-0.00229492
-2.565334e-008	-0.00805664
-2.562834e-008	-0.0109497
-2.560334e-008	-0.00698242
-2.557834e-008	-0.00220947
-2.555334e-008	-0.00223388
-2.552834e-008	-0.0081665
-2.550334e-008	-0.000903317
-2.547834e-008	0.00703125
-2.545334e-008	0.0034668
-2.542834e-008	0.00550537
-2.540334e-008	0.00393067
-2.537834e-008	0.00125733
-2.535334e-008	0.000439457
-2.532834e-008	-0.00294189
-2.530334e-008	0.00305176
-2.527834e-008	0.00686036
-2.525334e-008	-0.00214843
-2.522834e-008	-0.00413818
-2.520334e-008	0.00191651
-2.517834e-008	-8.54455e-005
-2.515334e-008	-0.00100097
-2.512834e-008	-0.00056152
-2.510334e-008	-0.00235595
-2.507834e-008	-0.000122067
-2.505334e-008	0.000695805
-2.502834e-008	0.000268558
-2.500334e-008	-0.0019165
-2.497834e-008	-0.00537109
-2.495334e-008	-0.003125
-2.492834e-008	-0.000329586
-2.490334e-008	-0.00214843
-2.487834e-008	-0.00267334
-2.485334e-008	-0.00415039
-2.482834e-008	-0.00142822
-2.480334e-008	0.00544434
-2.477834e-008	0.00336914
-2.475334e-008	0.00184327
-2.472834e-008	-0.00246582
-2.470334e-008	-0.00445556
-2.467834e-008	0.00336914
-2.465334e-008	-0.00429687
-2.462834e-008	-0.00925293
-2.460334e-008	-0.00136718
-2.457834e-008	-0.00198974
-2.455334e-008	0.00269776
-2.452834e-008	0.00429688
-2.450334e-008	-0.00233154
-2.447834e-008	0.000317387
-2.445334e-008	0.00119629
-2.442834e-008	-0.000244137
-2.440334e-008	0.000744633
-2.437834e-008	0.00270996
-2.435334e-008	0.00378418
-2.432834e-008	-0.00155029
-2.430334e-008	-0.00117187
-2.427834e-008	0.000573734
-2.425334e-008	-0.00333252
-2.422834e-008	0.000781254
-2.420334e-008	0.0050293
-2.417834e-008	0.00119629
-2.415334e-008	-0.000634762
-2.412834e-008	0.000280765
-2.410334e-008	0.00307618
-2.407834e-008	0.00361329
-2.405334e-008	0.000634769
-2.402834e-008	0.00301514
-2.400334e-008	0.00223389
-2.397834e-008	0.0036377
-2.395334e-008	0.00916748
-2.392834e-008	0.00440674
-2.390334e-008	0.00136719
-2.387834e-008	-0.000244137
-2.385334e-008	-0.00689697
-2.382834e-008	-0.00948486
-2.380334e-008	-0.00450439
-2.377834e-008	0.00334473
-2.375334e-008	0.00371094
-2.372834e-008	-0.00126953
-2.370334e-008	-0.000134274
-2.367834e-008	-0.00300293
-2.365334e-008	-0.00847168
-2.362834e-008	0.000708012
-2.360334e-008	0.00706787
-2.357834e-008	0.00561524
-2.355334e-008	0.0017212
-2.352834e-008	-0.00283203
-2.350334e-008	0.0015625
-2.347834e-008	0.00107422
-2.345334e-008	-0.00356445
-2.342834e-008	-0.00395507
-2.340334e-008	0.00269776
-2.337834e-008	0.0121338
-2.335334e-008	0.00286866
-2.332834e-008	-0.00827636
-2.330334e-008	-0.000744625
-2.327834e-008	0.00209961
-2.325334e-008	-0.00479736
-2.322834e-008	-0.00372314
-2.320334e-008	-0.00230713
-2.317834e-008	-0.00323486
-2.315334e-008	0.000134281
-2.312834e-008	0.000451664
-2.310334e-008	0.00153809
-2.307834e-008	0.00303955
-2.305334e-008	0.000415043
-2.302834e-008	-0.00231933
-2.300334e-008	-0.00410156
-2.297834e-008	0.000451664
-2.295334e-008	0.00252686
-2.292834e-008	-0.00134277
-2.290334e-008	0.00198975
-2.287834e-008	0.00217286
-2.285334e-008	-0.00324707
-2.282834e-008	0.00126953
-2.280334e-008	0.00505371
-2.277834e-008	-0.000952145
-2.275334e-008	-0.00540771
-2.272834e-008	-0.00783691
-2.270334e-008	-0.00518798
-2.267834e-008	0.000378422
-2.265334e-008	-0.000988766
-2.262834e-008	-0.000146481
-2.260334e-008	0.000744633
-2.257834e-008	0.00290528
-2.255334e-008	0.00733643
-2.252834e-008	0.00175782
-2.250334e-008	0.00117188
-2.247834e-008	0.00296631
-2.245334e-008	-0.00351562
-2.242834e-008	-0.00446777
-2.240334e-008	-0.00482177
-2.237834e-008	-0.00479736
-2.235334e-008	0.000354008
-2.232834e-008	-0.0010498
-2.230334e-008	-0.000842281
-2.227834e-008	0.00535889
-2.225334e-008	0.00517579
-2.222834e-008	0.00483399
-2.220334e-008	0.0022461
-2.217834e-008	-0.00605468
-2.215334e-008	-0.0043457
-2.212834e-008	0.00177002
-2.210334e-008	-0.00197754
-2.207834e-008	-0.00800781