# LECROYWM813Zi	51496	Waveform
# Segments	1	SegmentSize	4002
# Segment	TrigTime	TimeSinceSegment1
# #1	30-Nov-2018 17:24:53	0                 
# Time	Ampl
-5.002381e-008	0.0206055
-4.999881e-008	0.0229981
-4.997381e-008	0.0266602
-4.994881e-008	0.0262207
-4.992381e-008	0.0272461
-4.989881e-008	0.0304932
-4.987381e-008	0.0205811
-4.984881e-008	0.00407716
-4.982381e-008	0.0174561
-4.979881e-008	0.0283691
-4.977381e-008	0.0179932
-4.974881e-008	0.0220947
-4.972381e-008	0.0206055
-4.969881e-008	0.0088379
-4.967381e-008	0.0186035
-4.964881e-008	0.0250488
-4.962381e-008	0.0250244
-4.959881e-008	0.0342041
-4.957381e-008	0.0176758
-4.954881e-008	0.00593262
-4.952381e-008	0.0284912
-4.949881e-008	0.0353027
-4.947381e-008	0.0280518
-4.944881e-008	0.0241211
-4.942381e-008	0.0209473
-4.939881e-008	0.0175293
-4.937381e-008	0.00793458
-4.934881e-008	0.0172852
-4.932381e-008	0.0326904
-4.929881e-008	0.0267578
-4.927381e-008	0.0268066
-4.924881e-008	0.0300781
-4.922381e-008	0.0199951
-4.919881e-008	0.00910645
-4.917381e-008	0.00632325
-4.914881e-008	0.015625
-4.912381e-008	0.0224365
-4.909881e-008	0.0168945
-4.907381e-008	0.0189453
-4.904881e-008	0.0237793
-4.902381e-008	0.018335
-4.899881e-008	0.0202881
-4.897381e-008	0.029419
-4.894881e-008	0.0335938
-4.892381e-008	0.0223877
-4.889881e-008	0.00888673
-4.887381e-008	0.0211182
-4.884881e-008	0.0320557
-4.882381e-008	0.0318115
-4.879881e-008	0.031958
-4.877381e-008	0.0144287
-4.874881e-008	0.00407716
-4.872381e-008	0.01521
-4.869881e-008	0.0157715
-4.867381e-008	0.0191895
-4.864881e-008	0.0313965
-4.862381e-008	0.029419
-4.859881e-008	0.0262451
-4.857381e-008	0.0175537
-4.854881e-008	0.0185059
-4.852381e-008	0.0277832
-4.849881e-008	0.00798341
-4.847381e-008	0.00646973
-4.844881e-008	0.0192871
-4.842381e-008	0.0183106
-4.839881e-008	0.025293
-4.837381e-008	0.0197998
-4.834881e-008	0.0197022
-4.832381e-008	0.0263672
-4.829881e-008	0.0198242
-4.827381e-008	0.0147705
-4.824881e-008	0.0109375
-4.822381e-008	0.0208008
-4.819881e-008	0.0239014
-4.817381e-008	0.00466309
-4.814881e-008	0.00393067
-4.812381e-008	0.024707
-4.809881e-008	0.0319336
-4.807381e-008	0.0225342
-4.804881e-008	0.0185791
-4.802381e-008	0.0188965
-4.799881e-008	0.0172852
-4.797381e-008	0.0146484
-4.794881e-008	0.02229
-4.792381e-008	0.0308594
-4.789881e-008	0.00825196
-4.787381e-008	0.000903328
-4.784881e-008	0.0230225
-4.782381e-008	0.0253418
-4.779881e-008	0.0233399
-4.777381e-008	0.0175049
-4.774881e-008	0.0175781
-4.772381e-008	0.0297119
-4.769881e-008	0.0200195
-4.767381e-008	0.0193848
-4.764881e-008	0.026709
-4.762381e-008	0.0186768
-4.759881e-008	0.00947266
-4.757381e-008	0.00439454
-4.754881e-008	0.0298584
-4.752381e-008	0.0475342
-4.749881e-008	0.0287109
-4.747381e-008	0.0260254
-4.744881e-008	0.0246338
-4.742381e-008	0.0157959
-4.739881e-008	0.0195557
-4.737381e-008	0.0128174
-4.734881e-008	0.0142334
-4.732381e-008	0.0376465
-4.729881e-008	0.0380127
-4.727381e-008	0.0193848
-4.724881e-008	0.0157715
-4.722381e-008	0.0169922
-4.719881e-008	0.0195557
-4.717381e-008	0.0236328
-4.714881e-008	0.0257324
-4.712381e-008	0.0269287
-4.709881e-008	0.0162842
-4.707381e-008	0.01521
-4.704881e-008	0.0314697
-4.702381e-008	0.0344483
-4.699881e-008	0.0237549
-4.697381e-008	0.0192627
-4.694881e-008	0.0291504
-4.692381e-008	0.0297119
-4.689881e-008	0.0157959
-4.687381e-008	0.017627
-4.684881e-008	0.0264893
-4.682381e-008	0.0200684
-4.679881e-008	0.00810548
-4.677381e-008	0.0088379
-4.674881e-008	0.0229492
-4.672381e-008	0.0320557
-4.669881e-008	0.0296875
-4.667381e-008	0.0268799
-4.664881e-008	0.0261719
-4.662381e-008	0.0275635
-4.659881e-008	0.0236572
-4.657381e-008	0.0166016
-4.654881e-008	0.0291504
-4.652381e-008	0.0240479
-4.649881e-008	0.000512703
-4.647381e-008	0.017749
-4.644881e-008	0.0301758
-4.642381e-008	0.0197022
-4.639881e-008	0.0264893
-4.637381e-008	0.0268311
-4.634881e-008	0.0281738
-4.632381e-008	0.033252
-4.629881e-008	0.0234863
-4.627381e-008	0.0282227
-4.624881e-008	0.0291504
-4.622381e-008	0.017334
-4.619881e-008	0.0325684
-4.617381e-008	0.0340576
-4.614881e-008	0.0196777
-4.612381e-008	0.0261719
-4.609881e-008	0.00505372
-4.607381e-008	0.00200196
-4.604881e-008	0.0378174
-4.602381e-008	0.0282959
-4.599881e-008	0.017041
-4.597381e-008	0.0192139
-4.594881e-008	0.0201172
-4.592381e-008	0.0387207
-4.589881e-008	0.0206543
-4.587381e-008	0.00998536
-4.584881e-008	0.0241211
-4.582381e-008	0.0119873
-4.579881e-008	0.0178955
-4.577381e-008	0.0183106
-4.574881e-008	0.0153809
-4.572381e-008	0.0308594
-4.569881e-008	0.0147217
-4.567381e-008	0.0157959
-4.564881e-008	0.0309815
-4.562381e-008	0.0167969
-4.559881e-008	0.0258789
-4.557381e-008	0.0365723
-4.554881e-008	0.0265625
-4.552381e-008	0.0225586
-4.549881e-008	0.0171631
-4.547381e-008	0.0227295
-4.544881e-008	0.0255127
-4.542381e-008	0.0160889
-4.539881e-008	0.0152832
-4.537381e-008	0.0182129
-4.534881e-008	0.0342041
-4.532381e-008	0.0335938
-4.529881e-008	0.0128174
-4.527381e-008	0.0250733
-4.524881e-008	0.0274658
-4.522381e-008	0.0105957
-4.519881e-008	0.0192139
-4.517381e-008	0.0223633
-4.514881e-008	0.0273682
-4.512381e-008	0.0324219
-4.509881e-008	0.0114746
-4.507381e-008	0.0125244
-4.504881e-008	0.023291
-4.502381e-008	0.0202637
-4.499881e-008	0.0313721
-4.497381e-008	0.0259277
-4.494881e-008	0.0159668
-4.492381e-008	0.0291992
-4.489881e-008	0.0347168
-4.487381e-008	0.0303955
-4.484881e-008	0.0149414
-4.482381e-008	0.00930177
-4.479881e-008	0.0289307
-4.477381e-008	0.0300049
-4.474881e-008	0.0174072
-4.472381e-008	0.0168213
-4.469881e-008	0.0158447
-4.467381e-008	0.0103516
-4.464881e-008	0.017041
-4.462381e-008	0.0279053
-4.459881e-008	0.00517579
-4.457381e-008	-0.00908202
-4.454881e-008	0.0208252
-4.452381e-008	0.0295166
-4.449881e-008	0.014209
-4.447381e-008	0.0133545
-4.444881e-008	0.0197022
-4.442381e-008	0.0292725
-4.439881e-008	0.028833
-4.437381e-008	0.0111572
-4.434881e-008	0.0116455
-4.432381e-008	0.0341797
-4.429881e-008	0.0306397
-4.427381e-008	0.02146
-4.424881e-008	0.0322754
-4.422381e-008	0.0314453
-4.419881e-008	0.0271484
-4.417381e-008	0.0209961
-4.414881e-008	0.0133789
-4.412381e-008	0.0232178
-4.409881e-008	0.0300049
-4.407381e-008	0.023291
-4.404881e-008	0.0164551
-4.402381e-008	0.0113525
-4.399881e-008	0.0135498
-4.397381e-008	0.0224609
-4.394881e-008	0.023584
-4.392381e-008	0.0251709
-4.389881e-008	0.0264893
-4.387381e-008	0.0186768
-4.384881e-008	0.0199951
-4.382381e-008	0.0272217
-4.379881e-008	0.0302734
-4.377381e-008	0.0276367
-4.374881e-008	0.029419
-4.372381e-008	0.0333252
-4.369881e-008	0.0175781
-4.367381e-008	0.0156982
-4.364881e-008	0.0268311
-4.362381e-008	0.0206543
-4.359881e-008	0.0272705
-4.357381e-008	0.0255127
-4.354881e-008	0.0167969
-4.352381e-008	0.0297119
-4.349881e-008	0.0213379
-4.347381e-008	0.0192627
-4.344881e-008	0.0385986
-4.342381e-008	0.0330078
-4.339881e-008	0.0230957
-4.337381e-008	0.0162842
-4.334881e-008	0.0162109
-4.332381e-008	0.0304443
-4.329881e-008	0.0289551
-4.327381e-008	0.0164795
-4.324881e-008	0.0165283
-4.322381e-008	0.0262695
-4.319881e-008	0.0251465
-4.317381e-008	0.00937501
-4.314881e-008	0.00930177
-4.312381e-008	0.0208496
-4.309881e-008	0.0146484
-4.307381e-008	0.0194824
-4.304881e-008	0.0283691
-4.302381e-008	0.0125977
-4.299881e-008	0.0139404
-4.297381e-008	0.0253906
-4.294881e-008	0.0229248
-4.292381e-008	0.0212402
-4.289881e-008	0.0143311
-4.287381e-008	0.0107178
-4.284881e-008	0.0230225
-4.282381e-008	0.0307861
-4.279881e-008	0.0233399
-4.277381e-008	0.0248291
-4.274881e-008	0.0304688
-4.272381e-008	0.0191406
-4.269881e-008	0.00969239
-4.267381e-008	0.0197266
-4.264881e-008	0.0345703
-4.262381e-008	0.0367432
-4.259881e-008	0.0362061
-4.257381e-008	0.029419
-4.254881e-008	0.0190918
-4.252381e-008	0.0207031
-4.249881e-008	0.0216553
-4.247381e-008	0.024707
-4.244881e-008	0.0216309
-4.242381e-008	0.0155762
-4.239881e-008	0.0306152
-4.237381e-008	0.0375977
-4.234881e-008	0.0320557
-4.232381e-008	0.0286133
-4.229881e-008	0.0154785
-4.227381e-008	0.0148682
-4.224881e-008	0.0181885
-4.222381e-008	0.0136719
-4.219881e-008	0.0282227
-4.217381e-008	0.0223633
-4.214881e-008	0.0065918
-4.212381e-008	0.0251953
-4.209881e-008	0.0257813
-4.207381e-008	0.0185303
-4.204881e-008	0.0320068
-4.202381e-008	0.0293945
-4.199881e-008	0.023877
-4.197381e-008	0.0236572
-4.194881e-008	0.0224609
-4.192381e-008	0.0194336
-4.189881e-008	0.00390626
-4.187381e-008	0.0090088
-4.184881e-008	0.0268066
-4.182381e-008	0.0297608
-4.179881e-008	0.0335938
-4.177381e-008	0.023999
-4.174881e-008	0.0205566
-4.172381e-008	0.0365234
-4.169881e-008	0.0354248
-4.167381e-008	0.0241455
-4.164881e-008	0.0156738
-4.162381e-008	0.0156982
-4.159881e-008	0.0236572
-4.157381e-008	0.0295654
-4.154881e-008	0.0321045
-4.152381e-008	0.0256104
-4.149881e-008	0.0232666
-4.147381e-008	0.02771
-4.144881e-008	0.021167
-4.142381e-008	0.0091797
-4.139881e-008	0.00031739
-4.137381e-008	0.00632325
-4.134881e-008	0.0291504
-4.132381e-008	0.0331055
-4.129881e-008	0.0168945
-4.127381e-008	0.0184082
-4.124881e-008	0.0320068
-4.122381e-008	0.0281006
-4.119881e-008	0.0142334
-4.117381e-008	0.0171875
-4.114881e-008	0.0290772
-4.112381e-008	0.034668
-4.109881e-008	0.0292725
-4.107381e-008	0.0237305
-4.104881e-008	0.0335938
-4.102381e-008	0.0268311
-4.099881e-008	0.0168701
-4.097381e-008	0.0254883
-4.094881e-008	0.027832
-4.092381e-008	0.0330322
-4.089881e-008	0.027124
-4.087381e-008	0.0238525
-4.084881e-008	0.0341065
-4.082381e-008	0.0149414
-4.079881e-008	0.0071045
-4.077381e-008	0.0239014
-4.074881e-008	0.024585
-4.072381e-008	0.0296387
-4.069881e-008	0.0259522
-4.067381e-008	0.00759278
-4.064881e-008	0.020044
-4.062381e-008	0.0323486
-4.059881e-008	0.0188477
-4.057381e-008	0.0177002
-4.054881e-008	0.0291748
-4.052381e-008	0.0367432
-4.049881e-008	0.0212158
-4.047381e-008	0.00507813
-4.044881e-008	0.021875
-4.042381e-008	0.0292481
-4.039881e-008	0.02229
-4.037381e-008	0.0196777
-4.034881e-008	0.013794
-4.032381e-008	0.0186035
-4.029881e-008	0.0265381
-4.027381e-008	0.0229736
-4.024881e-008	0.0161133
-4.022381e-008	0.0187012
-4.019881e-008	0.0267334
-4.017381e-008	0.0239258
-4.014881e-008	0.0213135
-4.012381e-008	0.0263672
-4.009881e-008	0.0248779
-4.007381e-008	0.0209473
-4.004881e-008	0.0164795
-4.002381e-008	0.00390626
-3.999881e-008	0.00249024
-3.997381e-008	0.0166748
-3.994881e-008	0.0229248
-3.992381e-008	0.0231201
-3.989881e-008	0.0273193
-3.987381e-008	0.0234863
-3.984881e-008	0.0202637
-3.982381e-008	0.032666
-3.979881e-008	0.0312988
-3.977381e-008	0.0208496
-3.974881e-008	0.027124
-3.972381e-008	0.019751
-3.969881e-008	0.0126221
-3.967381e-008	0.0258545
-3.964881e-008	0.0283691
-3.962381e-008	0.026416
-3.959881e-008	0.019458
-3.957381e-008	0.0125732
-3.954881e-008	0.0310303
-3.952381e-008	0.0295654
-3.949881e-008	0.00180665
-3.947381e-008	0.00820313
-3.944881e-008	0.0259522
-3.942381e-008	0.0291016
-3.939881e-008	0.0380127
-3.937381e-008	0.0348877
-3.934881e-008	0.0249756
-3.932381e-008	0.0232178
-3.929881e-008	0.0158447
-3.927381e-008	0.0174805
-3.924881e-008	0.0255371
-3.922381e-008	0.0215332
-3.919881e-008	0.0236572
-3.917381e-008	0.0233399
-3.914881e-008	0.0148193
-3.912381e-008	0.0233154
-3.909881e-008	0.0278809
-3.907381e-008	0.0228272
-3.904881e-008	0.0199707
-3.902381e-008	0.0138672
-3.899881e-008	0.0198242
-3.897381e-008	0.0281983
-3.894881e-008	0.0239746
-3.892381e-008	0.0154053
-3.889881e-008	0.0103272
-3.887381e-008	0.0114258
-3.884881e-008	0.0151611
-3.882381e-008	0.0233643
-3.879881e-008	0.0237793
-3.877381e-008	0.0176025
-3.874881e-008	0.0216065
-3.872381e-008	0.0237305
-3.869881e-008	0.0229004
-3.867381e-008	0.0280762
-3.864881e-008	0.0249756
-3.862381e-008	0.020459
-3.859881e-008	0.0227783
-3.857381e-008	0.0170654
-3.854881e-008	0.019458
-3.852381e-008	0.0280029
-3.849881e-008	0.0203125
-3.847381e-008	0.0216553
-3.844881e-008	0.0281983
-3.842381e-008	0.0223389
-3.839881e-008	0.0255615
-3.837381e-008	0.0218994
-3.834881e-008	0.00947266
-3.832381e-008	0.0192871
-3.829881e-008	0.0264404
-3.827381e-008	0.0180176
-3.824881e-008	0.0238037
-3.822381e-008	0.0333496
-3.819881e-008	0.0233399
-3.817381e-008	0.0189453
-3.814881e-008	0.031665
-3.812381e-008	0.0293701
-3.809881e-008	0.0220459
-3.807381e-008	0.0232178
-3.804881e-008	0.0241943
-3.802381e-008	0.0318115
-3.799881e-008	0.0181397
-3.797381e-008	0.00239259
-3.794881e-008	0.0231445
-3.792381e-008	0.0263672
-3.789881e-008	0.0157959
-3.787381e-008	0.0227783
-3.784881e-008	0.0210938
-3.782381e-008	0.0240967
-3.779881e-008	0.0264649
-3.777381e-008	0.0176514
-3.774881e-008	0.0214356
-3.772381e-008	0.0192627
-3.769881e-008	0.0141602
-3.767381e-008	0.0262207
-3.764881e-008	0.0328613
-3.762381e-008	0.0237549
-3.759881e-008	0.0202149
-3.757381e-008	0.0258789
-3.754881e-008	0.0228027
-3.752381e-008	0.0241455
-3.749881e-008	0.023877
-3.747381e-008	0.0153076
-3.744881e-008	0.0272949
-3.742381e-008	0.0350342
-3.739881e-008	0.0219727
-3.737381e-008	0.0188232
-3.734881e-008	0.0331055
-3.732381e-008	0.035791
-3.729881e-008	0.0165772
-3.727381e-008	0.0151367
-3.724881e-008	0.0253418
-3.722381e-008	0.0236816
-3.719881e-008	0.0250244
-3.717381e-008	0.0296631
-3.714881e-008	0.0347656
-3.712381e-008	0.0291504
-3.709881e-008	0.0165772
-3.707381e-008	0.0193848
-3.704881e-008	0.0216553
-3.702381e-008	0.01604
-3.699881e-008	0.0186524
-3.697381e-008	0.0216309
-3.694881e-008	0.0239502
-3.692381e-008	0.0243652
-3.689881e-008	0.0188477
-3.687381e-008	0.0213135
-3.684881e-008	0.0300293
-3.682381e-008	0.0322998
-3.679881e-008	0.0272949
-3.677381e-008	0.0275147
-3.674881e-008	0.031665
-3.672381e-008	0.026416
-3.669881e-008	0.0213623
-3.667381e-008	0.0194092
-3.664881e-008	0.0230957
-3.662381e-008	0.0272949
-3.659881e-008	0.0175537
-3.657381e-008	0.0159912
-3.654881e-008	0.0281983
-3.652381e-008	0.0349854
-3.649881e-008	0.0330322
-3.647381e-008	0.0270508
-3.644881e-008	0.0248779
-3.642381e-008	0.0219727
-3.639881e-008	0.0194336
-3.637381e-008	0.0206299
-3.634881e-008	0.0242432
-3.632381e-008	0.0265137
-3.629881e-008	0.0153809
-3.627381e-008	0.0139404
-3.624881e-008	0.0258301
-3.622381e-008	0.0258789
-3.619881e-008	0.030249
-3.617381e-008	0.0293701
-3.614881e-008	0.0195801
-3.612381e-008	0.0255615
-3.609881e-008	0.0204346
-3.607381e-008	0.00810548
-3.604881e-008	0.016626
-3.602381e-008	0.0294678
-3.599881e-008	0.0356201
-3.597381e-008	0.0257568
-3.594881e-008	0.0187256
-3.592381e-008	0.0255615
-3.589881e-008	0.0204834
-3.587381e-008	0.0276367
-3.584881e-008	0.0319824
-3.582381e-008	0.0130859
-3.579881e-008	0.0240234
-3.577381e-008	0.0351807
-3.574881e-008	0.0215576
-3.572381e-008	0.0213135
-3.569881e-008	0.01604
-3.567381e-008	0.0129883
-3.564881e-008	0.0294434
-3.562381e-008	0.034668
-3.559881e-008	0.0230713
-3.557381e-008	0.0144287
-3.554881e-008	0.0236816
-3.552381e-008	0.029541
-3.549881e-008	0.0173584
-3.547381e-008	0.018335
-3.544881e-008	0.0214844
-3.542381e-008	0.018457
-3.539881e-008	0.0301025
-3.537381e-008	0.0230225
-3.534881e-008	0.0131104
-3.532381e-008	0.0234131
-3.529881e-008	0.0125488
-3.527381e-008	0.0127197
-3.524881e-008	0.0332764
-3.522381e-008	0.0292725
-3.519881e-008	0.021167
-3.517381e-008	0.021582
-3.514881e-008	0.0250977
-3.512381e-008	0.0280029
-3.509881e-008	0.0235107
-3.507381e-008	0.0216065
-3.504881e-008	0.0203125
-3.502381e-008	0.0190918
-3.499881e-008	0.0248047
-3.497381e-008	0.0300537
-3.494881e-008	0.0321289
-3.492381e-008	0.0280518
-3.489881e-008	0.0144531
-3.487381e-008	0.0130127
-3.484881e-008	0.0226807
-3.482381e-008	0.0208984
-3.479881e-008	0.0194092
-3.477381e-008	0.0288818
-3.474881e-008	0.0345947
-3.472381e-008	0.0290283
-3.469881e-008	0.0300293
-3.467381e-008	0.0255127
-3.464881e-008	0.0166504
-3.462381e-008	0.0263428
-3.459881e-008	0.0197754
-3.457381e-008	0.0147461
-3.454881e-008	0.0276856
-3.452381e-008	0.022168
-3.449881e-008	0.0165283
-3.447381e-008	0.0181152
-3.444881e-008	0.0203369
-3.442381e-008	0.0194336
-3.439881e-008	0.019458
-3.437381e-008	0.0229492
-3.434881e-008	0.020044
-3.432381e-008	0.0285645
-3.429881e-008	0.0296631
-3.427381e-008	0.021875
-3.424881e-008	0.0277344
-3.422381e-008	0.0272705
-3.419881e-008	0.0229248
-3.417381e-008	0.0177734
-3.414881e-008	0.0152832
-3.412381e-008	0.0171631
-3.409881e-008	0.0125977
-3.407381e-008	0.0203369
-3.404881e-008	0.0353516
-3.402381e-008	0.0338867
-3.399881e-008	0.0296631
-3.397381e-008	0.0277344
-3.394881e-008	0.0289063
-3.392381e-008	0.0327393
-3.389881e-008	0.0236084
-3.387381e-008	0.018457
-3.384881e-008	0.0180176
-3.382381e-008	0.0097168
-3.379881e-008	0.0109375
-3.377381e-008	0.0141357
-3.374881e-008	0.0229248
-3.372381e-008	0.0378662
-3.369881e-008	0.0247559
-3.367381e-008	0.0108643
-3.364881e-008	0.0253662
-3.362381e-008	0.0270264
-3.359881e-008	0.0155029
-3.357381e-008	0.020874
-3.354881e-008	0.0313965
-3.352381e-008	0.0248047
-3.349881e-008	0.00939942
-3.347381e-008	0.0205078
-3.344881e-008	0.0296631
-3.342381e-008	0.0168457
-3.339881e-008	0.0260498
-3.337381e-008	0.0191162
-3.334881e-008	0.000756843
-3.332381e-008	0.0225342
-3.329881e-008	0.0293701
-3.327381e-008	0.0247559
-3.324881e-008	0.0365479
-3.322381e-008	0.0368652
-3.319881e-008	0.036499
-3.317381e-008	0.0254883
-3.314881e-008	0.0162842
-3.312381e-008	0.0325684
-3.309881e-008	0.0322022
-3.307381e-008	0.0221436
-3.304881e-008	0.0283691
-3.302381e-008	0.0302246
-3.299881e-008	0.0218994
-3.297381e-008	0.0157227
-3.294881e-008	0.0196533
-3.292381e-008	0.0222412
-3.289881e-008	0.017334
-3.287381e-008	0.012207
-3.284881e-008	0.013794
-3.282381e-008	0.0211182
-3.279881e-008	0.01875
-3.277381e-008	0.0198486
-3.274881e-008	0.0287354
-3.272381e-008	0.0242188
-3.269881e-008	0.0188721
-3.267381e-008	0.0148193
-3.264881e-008	0.0102295
-3.262381e-008	0.0199463
-3.259881e-008	0.0250733
-3.257381e-008	0.0183594
-3.254881e-008	0.0188965
-3.252381e-008	0.0156006
-3.249881e-008	0.00471192
-3.247381e-008	0.0125977
-3.244881e-008	0.0260498
-3.242381e-008	0.0169922
-3.239881e-008	0.010669
-3.237381e-008	0.0168945
-3.234881e-008	0.0232178
-3.232381e-008	0.039209
-3.229881e-008	0.0490967
-3.227381e-008	0.038916
-3.224881e-008	0.0224609
-3.222381e-008	0.017041
-3.219881e-008	0.0317871
-3.217381e-008	0.0374756
-3.214881e-008	0.0283447
-3.212381e-008	0.0311279
-3.209881e-008	0.0346191
-3.207381e-008	0.0307861
-3.204881e-008	0.0260254
-3.202381e-008	0.023877
-3.199881e-008	0.0279541
-3.197381e-008	0.0215088
-3.194881e-008	0.0175293
-3.192381e-008	0.025708
-3.189881e-008	0.014502
-3.187381e-008	0.010791
-3.184881e-008	0.0296631
-3.182381e-008	0.0322022
-3.179881e-008	0.0289795
-3.177381e-008	0.0307373
-3.174881e-008	0.0354981
-3.172381e-008	0.0318115
-3.169881e-008	0.00451661
-3.167381e-008	0.00280762
-3.164881e-008	0.0290772
-3.162381e-008	0.0292969
-3.159881e-008	0.017627
-3.157381e-008	0.0152588
-3.154881e-008	0.0190918
-3.152381e-008	0.023584
-3.149881e-008	0.01521
-3.147381e-008	0.00905762
-3.144881e-008	0.0143066
-3.142381e-008	0.0192139
-3.139881e-008	0.0302246
-3.137381e-008	0.0349121
-3.134881e-008	0.0281983
-3.132381e-008	0.0239258
-3.129881e-008	0.0108887
-3.127381e-008	0.0134522
-3.124881e-008	0.032666
-3.122381e-008	0.024585
-3.119881e-008	0.0219971
-3.117381e-008	0.0291016
-3.114881e-008	0.016333
-3.112381e-008	0.0185059
-3.109881e-008	0.0252197
-3.107381e-008	0.0202149
-3.104881e-008	0.0219482
-3.102381e-008	0.018335
-3.099881e-008	0.0145996
-3.097381e-008	0.0200195
-3.094881e-008	0.030542
-3.092381e-008	0.0314453
-3.089881e-008	0.0166992
-3.087381e-008	0.0165283
-3.084881e-008	0.0220459
-3.082381e-008	0.0239014
-3.079881e-008	0.0317871
-3.077381e-008	0.0286621
-3.074881e-008	0.0254883
-3.072381e-008	0.0195313
-3.069881e-008	0.0121338
-3.067381e-008	0.02854
-3.064881e-008	0.0344238
-3.062381e-008	0.0215088
-3.059881e-008	0.0239258
-3.057381e-008	0.0230225
-3.054881e-008	0.015332
-3.052381e-008	0.0202149
-3.049881e-008	0.0218506
-3.047381e-008	0.0230469
-3.044881e-008	0.0235107
-3.042381e-008	0.0157959
-3.039881e-008	0.0244873
-3.037381e-008	0.0261475
-3.034881e-008	0.0112061
-3.032381e-008	0.0196777
-3.029881e-008	0.0247559
-3.027381e-008	0.0150147
-3.024881e-008	0.024585
-3.022381e-008	0.0286133
-3.019881e-008	0.0229981
-3.017381e-008	0.0388916
-3.014881e-008	0.0392334
-3.012381e-008	0.0135986
-3.009881e-008	0.00754395
-3.007381e-008	0.017627
-3.004881e-008	0.0286621
-3.002381e-008	0.0290527
-2.999881e-008	0.0230957
-2.997381e-008	0.0314697
-2.994881e-008	0.0379883
-2.992381e-008	0.0311279
-2.989881e-008	0.00859376
-2.987381e-008	-0.000927727
-2.984881e-008	0.0250977
-2.982381e-008	0.0350586
-2.979881e-008	0.0248047
-2.977381e-008	0.0248535
-2.974881e-008	0.032251
-2.972381e-008	0.0345215
-2.969881e-008	0.0211914
-2.967381e-008	0.0148926
-2.964881e-008	0.0195313
-2.962381e-008	0.0232666
-2.959881e-008	0.0225098
-2.957381e-008	0.0181885
-2.954881e-008	0.0316895
-2.952381e-008	0.0363281
-2.949881e-008	0.0180176
-2.947381e-008	0.0150635
-2.944881e-008	0.0251221
-2.942381e-008	0.0240723
-2.939881e-008	0.0133057
-2.937381e-008	0.0125732
-2.934881e-008	0.0242188
-2.932381e-008	0.0304688
-2.929881e-008	0.0221924
-2.927381e-008	0.0207275
-2.924881e-008	0.0282715
-2.922381e-008	0.0195068
-2.919881e-008	0.0150635
-2.917381e-008	0.0186524
-2.914881e-008	0.0220947
-2.912381e-008	0.0271484
-2.909881e-008	0.0244141
-2.907381e-008	0.032666
-2.904881e-008	0.0347656
-2.902381e-008	0.0244385
-2.899881e-008	0.0255859
-2.897381e-008	0.0292236
-2.894881e-008	0.0352539
-2.892381e-008	0.0259522
-2.889881e-008	0.0119629
-2.887381e-008	0.018335
-2.884881e-008	0.0208252
-2.882381e-008	0.0165772
-2.879881e-008	0.015918
-2.877381e-008	0.0218018
-2.874881e-008	0.0307617
-2.872381e-008	0.0315186
-2.869881e-008	0.0246094
-2.867381e-008	0.0234375
-2.864881e-008	0.0310059
-2.862381e-008	0.0317871
-2.859881e-008	0.0258545
-2.857381e-008	0.028125
-2.854881e-008	0.0346924
-2.852381e-008	0.0253174
-2.849881e-008	0.0141846
-2.847381e-008	0.015625
-2.844881e-008	0.0167725
-2.842381e-008	0.0242188
-2.839881e-008	0.0276611
-2.837381e-008	0.020752
-2.834881e-008	0.0201416
-2.832381e-008	0.0223145
-2.829881e-008	0.0203125
-2.827381e-008	0.0128662
-2.824881e-008	0.0175537
-2.822381e-008	0.0322754
-2.819881e-008	0.0252441
-2.817381e-008	0.0147461
-2.814881e-008	0.0248779
-2.812381e-008	0.0283936
-2.809881e-008	0.0216309
-2.807381e-008	0.0212402
-2.804881e-008	0.0214111
-2.802381e-008	0.0252197
-2.799881e-008	0.0208252
-2.797381e-008	0.00939942
-2.794881e-008	0.0225342
-2.792381e-008	0.0340088
-2.789881e-008	0.0208496
-2.787381e-008	0.0169434
-2.784881e-008	0.0255127
-2.782381e-008	0.0275879
-2.779881e-008	0.0240234
-2.777381e-008	0.0132324
-2.774881e-008	0.0159912
-2.772381e-008	0.0365479
-2.769881e-008	0.0239746
-2.767381e-008	-0.000708
-2.764881e-008	0.008667
-2.762381e-008	0.0172852
-2.759881e-008	0.0159912
-2.757381e-008	0.0227783
-2.754881e-008	0.0320557
-2.752381e-008	0.0295654
-2.749881e-008	0.0147705
-2.747381e-008	0.0204346
-2.744881e-008	0.0349365
-2.742381e-008	0.0280274
-2.739881e-008	0.0205811
-2.737381e-008	0.0273926
-2.734881e-008	0.0391358
-2.732381e-008	0.0346924
-2.729881e-008	0.0189209
-2.727381e-008	0.0207031
-2.724881e-008	0.0251465
-2.722381e-008	0.020166
-2.719881e-008	0.0227539
-2.717381e-008	0.0283936
-2.714881e-008	0.0366211
-2.712381e-008	0.038916
-2.709881e-008	0.0227051
-2.707381e-008	0.0159668
-2.704881e-008	0.0199463
-2.702381e-008	0.023584
-2.699881e-008	0.0265625
-2.697381e-008	0.0191162
-2.694881e-008	0.0289551
-2.692381e-008	0.0395508
-2.689881e-008	0.0209717
-2.687381e-008	0.020752
-2.684881e-008	0.0354736
-2.682381e-008	0.0277588
-2.679881e-008	0.0219482
-2.677381e-008	0.0294922
-2.674881e-008	0.0317139
-2.672381e-008	0.0188721
-2.669881e-008	0.00122071
-2.667381e-008	0.0126221
-2.664881e-008	0.0313477
-2.662381e-008	0.0261231
-2.659881e-008	0.0305176
-2.657381e-008	0.0292481
-2.654881e-008	0.0143799
-2.652381e-008	0.0199219
-2.649881e-008	0.0214356
-2.647381e-008	0.0214844
-2.644881e-008	0.028418
-2.642381e-008	0.0148193
-2.639881e-008	0.0112793
-2.637381e-008	0.0206543
-2.634881e-008	0.0247803
-2.632381e-008	0.0376953
-2.629881e-008	0.0203857
-2.627381e-008	0.00388184
-2.624881e-008	0.0262695
-2.622381e-008	0.0224365
-2.619881e-008	0.0130371
-2.617381e-008	0.0226074
-2.614881e-008	0.0290527
-2.612381e-008	0.0318359
-2.609881e-008	0.0119385
-2.607381e-008	0.00266114
-2.604881e-008	0.0157959
-2.602381e-008	0.0172607
-2.599881e-008	0.020752
-2.597381e-008	0.0267822
-2.594881e-008	0.0314209
-2.592381e-008	0.031665
-2.589881e-008	0.0104492
-2.587381e-008	0.00446778
-2.584881e-008	0.0284668
-2.582381e-008	0.0350098
-2.579881e-008	0.0307129
-2.577381e-008	0.0292969
-2.574881e-008	0.021582
-2.572381e-008	0.0166016
-2.569881e-008	0.010376
-2.567381e-008	0.0192627
-2.564881e-008	0.0294678
-2.562381e-008	0.0210205
-2.559881e-008	0.0210693
-2.557381e-008	0.0176514
-2.554881e-008	0.0214356
-2.552381e-008	0.0350098
-2.549881e-008	0.0240967
-2.547381e-008	0.0173828
-2.544881e-008	0.0245606
-2.542381e-008	0.0292481
-2.539881e-008	0.0322754
-2.537381e-008	0.0261963
-2.534881e-008	0.0271973
-2.532381e-008	0.0364746
-2.529881e-008	0.027417
-2.527381e-008	0.00798341
-2.524881e-008	0.0058838
-2.522381e-008	0.0223145
-2.519881e-008	0.0276856
-2.517381e-008	0.0171631
-2.514881e-008	0.0224854
-2.512381e-008	0.0324463
-2.509881e-008	0.024707
-2.507381e-008	0.0192627
-2.504881e-008	0.0215332
-2.502381e-008	0.0239258
-2.499881e-008	0.0263672
-2.497381e-008	0.0265137
-2.494881e-008	0.0209961
-2.492381e-008	0.0218994
-2.489881e-008	0.0341065
-2.487381e-008	0.0286377
-2.484881e-008	0.0222168
-2.482381e-008	0.0312988
-2.479881e-008	0.0254883
-2.477381e-008	0.0226563
-2.474881e-008	0.0329346
-2.472381e-008	0.0241211
-2.469881e-008	0.00698243
-2.467381e-008	0.0131592
-2.464881e-008	0.0216553
-2.462381e-008	0.0224121
-2.459881e-008	0.0348389
-2.457381e-008	0.0297119
-2.454881e-008	0.0208252
-2.452381e-008	0.034668
-2.449881e-008	0.032544
-2.447381e-008	0.0279053
-2.444881e-008	0.0287842
-2.442381e-008	0.0187256
-2.439881e-008	0.0213135
-2.437381e-008	0.0262207
-2.434881e-008	0.0242676
-2.432381e-008	0.0260498
-2.429881e-008	0.0223389
-2.427381e-008	0.0168457
-2.424881e-008	0.0121338
-2.422381e-008	0.010791
-2.419881e-008	0.0153565
-2.417381e-008	0.0162598
-2.414881e-008	0.0243164
-2.412381e-008	0.0309082
-2.409881e-008	0.0196289
-2.407381e-008	0.0155029
-2.404881e-008	0.0252197
-2.402381e-008	0.031958
-2.399881e-008	0.0334473
-2.397381e-008	0.0281983
-2.394881e-008	0.0179443
-2.392381e-008	0.0140137
-2.389881e-008	0.0153076
-2.387381e-008	0.0182861
-2.384881e-008	0.021875
-2.382381e-008	0.0203857
-2.379881e-008	0.0252441
-2.377381e-008	0.0268311
-2.374881e-008	0.00812989
-2.372381e-008	0.00698243
-2.369881e-008	0.0349365
-2.367381e-008	0.0353272
-2.364881e-008	0.0129395
-2.362381e-008	0.0146484
-2.359881e-008	0.0165772
-2.357381e-008	0.0209473
-2.354881e-008	0.0386231
-2.352381e-008	0.0345459
-2.349881e-008	0.0297363
-2.347381e-008	0.0300049
-2.344881e-008	0.0209717
-2.342381e-008	0.0230225
-2.339881e-008	0.0293945
-2.337381e-008	0.0362305
-2.334881e-008	0.0370117
-2.332381e-008	0.0280029
-2.329881e-008	0.0256592
-2.327381e-008	0.0292969
-2.324881e-008	0.0344971
-2.322381e-008	0.0327881
-2.319881e-008	0.0229004
-2.317381e-008	0.0185547
-2.314881e-008	0.0280029
-2.312381e-008	0.0236328
-2.309881e-008	-0.000732414
-2.307381e-008	0.00297852
-2.304881e-008	0.0200684
-2.302381e-008	0.0195068
-2.299881e-008	0.0243652
-2.297381e-008	0.039502
-2.294881e-008	0.0394531
-2.292381e-008	0.023291
-2.289881e-008	0.0231445
-2.287381e-008	0.0255371
-2.284881e-008	0.0221191
-2.282381e-008	0.0305908
-2.279881e-008	0.0272705
-2.277381e-008	0.0206787
-2.274881e-008	0.0284424
-2.272381e-008	0.0307373
-2.269881e-008	0.0259277
-2.267381e-008	0.0238037
-2.264881e-008	0.024585
-2.262381e-008	0.025415
-2.259881e-008	0.0230957
-2.257381e-008	0.0117676
-2.254881e-008	0.0106201
-2.252381e-008	0.0283447
-2.249881e-008	0.0290039
-2.247381e-008	0.0188232
-2.244881e-008	0.0201904
-2.242381e-008	0.0248779
-2.239881e-008	0.0271973
-2.237381e-008	0.0190918
-2.234881e-008	0.0210205
-2.232381e-008	0.0351807
-2.229881e-008	0.0331055
-2.227381e-008	0.0288574
-2.224881e-008	0.0240234
-2.222381e-008	0.0148438
-2.219881e-008	0.0144775
-2.217381e-008	0.0158447
-2.214881e-008	0.0239258
-2.212381e-008	0.0284424
-2.209881e-008	0.0173584
-2.207381e-008	0.0143311
-2.204881e-008	0.0167481
-2.202381e-008	0.0202393
-2.199881e-008	0.0269043
-2.197381e-008	0.023291
-2.194881e-008	0.0293945
-2.192381e-008	0.0318848
-2.189881e-008	0.0103516
-2.187381e-008	0.0128174
-2.184881e-008	0.0322266
-2.182381e-008	0.0321777
-2.179881e-008	0.0243652
-2.177381e-008	0.020044
-2.174881e-008	0.0201172
-2.172381e-008	0.020752
-2.169881e-008	0.0221191
-2.167381e-008	0.0233643
-2.164881e-008	0.0283691
-2.162381e-008	0.024585
-2.159881e-008	0.0171387
-2.157381e-008	0.0318115
-2.154881e-008	0.0383301
-2.152381e-008	0.0337158
-2.149881e-008	0.0278565
-2.147381e-008	0.019751
-2.144881e-008	0.0251709
-2.142381e-008	0.0223389
-2.139881e-008	0.0174316
-2.137381e-008	0.0251953
-2.134881e-008	0.0295654
-2.132381e-008	0.0209961
-2.129881e-008	0.0101318
-2.127381e-008	0.0196777
-2.124881e-008	0.0309815
-2.122381e-008	0.0254395
-2.119881e-008	0.0175049
-2.117381e-008	0.0140381
-2.114881e-008	0.0188965
-2.112381e-008	0.0302979
-2.109881e-008	0.0266846
-2.107381e-008	0.0185791
-2.104881e-008	0.0247803
-2.102381e-008	0.0232422
-2.099881e-008	0.0248779
-2.097381e-008	0.0220947
-2.094881e-008	0.0127197
-2.092381e-008	0.0242676
-2.089881e-008	0.0232178
-2.087381e-008	0.0221436
-2.084881e-008	0.030249
-2.082381e-008	0.0171631
-2.079881e-008	0.017749
-2.077381e-008	0.027124
-2.074881e-008	0.0254395
-2.072381e-008	0.0303711
-2.069881e-008	0.0280518
-2.067381e-008	0.0194824
-2.064881e-008	0.0171387
-2.062381e-008	0.0150879
-2.059881e-008	0.0219238
-2.057381e-008	0.024292
-2.054881e-008	0.00705567
-2.052381e-008	0.0132324
-2.049881e-008	0.037793
-2.047381e-008	0.0334473
-2.044881e-008	0.0223633
-2.042381e-008	0.0195801
-2.039881e-008	0.0174561
-2.037381e-008	0.0217285
-2.034881e-008	0.0284668
-2.032381e-008	0.0254395
-2.029881e-008	0.00644532
-2.027381e-008	0.0116699
-2.024881e-008	0.0383789
-2.022381e-008	0.0362061
-2.019881e-008	0.0187988
-2.017381e-008	0.0177002
-2.014881e-008	0.033667