# LECROYWM813Zi	51496	Waveform
# Segments	1	SegmentSize	4002
# Segment	TrigTime	TimeSinceSegment1
# #1	30-Nov-2018 17:26:06	0                 
# Time	Ampl
-5.00151e-008	-0.00461425
-4.99901e-008	-0.0013916
-4.99651e-008	0.00347901
-4.99401e-008	0.00245362
-4.99151e-008	-0.00213623
-4.98901e-008	-0.00522461
-4.98651e-008	-0.0110718
-4.98401e-008	-0.0105103
-4.98151e-008	-0.00689697
-4.97901e-008	-0.00839843
-4.97651e-008	-0.00554199
-4.97401e-008	0.00115967
-4.97151e-008	0.000451664
-4.96901e-008	-0.00701904
-4.96651e-008	-0.00367431
-4.96401e-008	0.00139161
-4.96151e-008	0.0015625
-4.95901e-008	0.00654297
-4.95651e-008	0.00108643
-4.95401e-008	-0.00594482
-4.95151e-008	-0.00306396
-4.94901e-008	-0.00129394
-4.94651e-008	-0.00180664
-4.94401e-008	-0.00366211
-4.94151e-008	-0.00158691
-4.93901e-008	-0.00209961
-4.93651e-008	-0.00683593
-4.93401e-008	-0.00023193
-4.93151e-008	0.0064209
-4.92901e-008	0.00275879
-4.92651e-008	-0.00130615
-4.92401e-008	-0.00554199
-4.92151e-008	-0.00447998
-4.91901e-008	0.00130616
-4.91651e-008	0.00349121
-4.91401e-008	0.00447998
-4.91151e-008	0.00220948
-4.90901e-008	-0.000952145
-4.90651e-008	-0.00280761
-4.90401e-008	-0.00241699
-4.90151e-008	0.00361329
-4.89901e-008	0.00452881
-4.89651e-008	-0.00113525
-4.89401e-008	-3.66174e-005
-4.89151e-008	0.00477295
-4.88901e-008	0.00410157
-4.88651e-008	0.00178223
-4.88401e-008	0.00305176
-4.88151e-008	0.00350342
-4.87901e-008	-0.00117187
-4.87651e-008	-0.000585934
-4.87401e-008	0.00488282
-4.87151e-008	0.00358887
-4.86901e-008	-0.00214843
-4.86651e-008	-0.00397949
-4.86401e-008	2.44178e-005
-4.86151e-008	-0.00273437
-4.85901e-008	-0.00471191
-4.85651e-008	0.000402836
-4.85401e-008	-0.00205078
-4.85151e-008	-0.000170895
-4.84901e-008	0.000451664
-4.84651e-008	-0.00438232
-4.84401e-008	0.000695805
-4.84151e-008	-0.00366211
-4.83901e-008	-0.00987548
-4.83651e-008	-0.00484619
-4.83401e-008	-0.00620117
-4.83151e-008	-0.00629882
-4.82901e-008	-0.0024414
-4.82651e-008	-0.00192871
-4.82401e-008	-0.00187988
-4.82151e-008	-0.00600586
-4.81901e-008	-0.00705566
-4.81651e-008	-0.00252685
-4.81401e-008	-0.0057373
-4.81151e-008	-0.00493164
-4.80901e-008	0.00212403
-4.80651e-008	-0.00238037
-4.80401e-008	-0.00472412
-4.80151e-008	-0.00268554
-4.79901e-008	-0.00321045
-4.79651e-008	0.0038208
-4.79401e-008	0.00653077
-4.79151e-008	0.00191651
-4.78901e-008	0.000268558
-4.78651e-008	0.00042725
-4.78401e-008	0.003125
-4.78151e-008	0.000524906
-4.77901e-008	-0.00798339
-4.77651e-008	-0.00595703
-4.77401e-008	0.00295411
-4.77151e-008	0.0022461
-4.76901e-008	0.000207523
-4.76651e-008	0.000708012
-4.76401e-008	-0.00163574
-4.76151e-008	-0.000268551
-4.75901e-008	-0.000952145
-4.75651e-008	0.000610355
-4.75401e-008	0.00487061
-4.75151e-008	-0.000744625
-4.74901e-008	-0.00290527
-4.74651e-008	-0.0015747
-4.74401e-008	-0.00228271
-4.74151e-008	0.000720219
-4.73901e-008	-0.00207519
-4.73651e-008	-0.00444336
-4.73401e-008	0.000720219
-4.73151e-008	0.000244144
-4.72901e-008	-0.00213623
-4.72651e-008	-0.00134277
-4.72401e-008	-0.00168457
-4.72151e-008	-0.00169677
-4.71901e-008	-0.00649414
-4.71651e-008	-0.0111816
-4.71401e-008	-0.00201416
-4.71151e-008	0.00610352
-4.70901e-008	0.000451664
-4.70651e-008	-0.000793453
-4.70401e-008	-0.00145263
-4.70151e-008	-0.00944824
-4.69901e-008	-0.00517578
-4.69651e-008	-0.000207516
-4.69401e-008	-0.00429687
-4.69151e-008	0.00108643
-4.68901e-008	0.00627442
-4.68651e-008	0.00278321
-4.68401e-008	-0.000756832
-4.68151e-008	-0.00356445
-4.67901e-008	-0.00675048
-4.67651e-008	-0.00800781
-4.67401e-008	-0.00338134
-4.67151e-008	-0.000756832
-4.66901e-008	-0.00511474
-4.66651e-008	-0.00758056
-4.66401e-008	-0.00120849
-4.66151e-008	0.00362549
-4.65901e-008	-0.000292965
-4.65651e-008	0.000903324
-4.65401e-008	0.00136719
-4.65151e-008	2.44178e-005
-4.64901e-008	0.00283204
-4.64651e-008	-0.000134274
-4.64401e-008	0.00101319
-4.64151e-008	0.00616455
-4.63901e-008	0.00344239
-4.63651e-008	-0.00252685
-4.63401e-008	-0.00203857
-4.63151e-008	-0.000512692
-4.62901e-008	-0.00462646
-4.62651e-008	-0.00212402
-4.62401e-008	0.00111084
-4.62151e-008	0.00152588
-4.61901e-008	0.00441895
-4.61651e-008	0.00552979
-4.61401e-008	0.00900879
-4.61151e-008	0.00371094
-4.60901e-008	-0.00579834
-4.60651e-008	-0.00424804
-4.60401e-008	-0.00389404
-4.60151e-008	-0.00302734
-4.59901e-008	-0.00439453
-4.59651e-008	-0.00982666
-4.59401e-008	-0.00418701
-4.59151e-008	0.00493164
-4.58901e-008	0.00413819
-4.58651e-008	-0.00362548
-4.58401e-008	-0.000976559
-4.58151e-008	0.00302735
-4.57901e-008	-0.0019165
-4.57651e-008	0.003125
-4.57401e-008	0.00302735
-4.57151e-008	-0.00386963
-4.56901e-008	-0.00216064
-4.56651e-008	-0.00449218
-4.56401e-008	-0.00202636
-4.56151e-008	0.000329594
-4.55901e-008	-0.00717773
-4.55651e-008	-0.00161132
-4.55401e-008	0.00364991
-4.55151e-008	-0.00317382
-4.54901e-008	-0.00113525
-4.54651e-008	0.00273438
-4.54401e-008	0.00123291
-4.54151e-008	0.000195316
-4.53901e-008	-0.00200195
-4.53651e-008	0.000939945
-4.53401e-008	0.00452881
-4.53151e-008	-0.00108642
-4.52901e-008	0.000659183
-4.52651e-008	0.00714112
-4.52401e-008	0.00104981
-4.52151e-008	-0.000524899
-4.51901e-008	3.72529e-009
-4.51651e-008	-0.00484619
-4.51401e-008	-0.00010986
-4.51151e-008	-0.00238037
-4.50901e-008	-0.00709228
-4.50651e-008	-0.000329586
-4.50401e-008	-0.00345459
-4.50151e-008	-0.00233154
-4.49901e-008	0.00678711
-4.49651e-008	0.00218506
-4.49401e-008	-0.000988766
-4.49151e-008	0.00415039
-4.48901e-008	0.00611573
-4.48651e-008	0.00321045
-4.48401e-008	0.00347901
-4.48151e-008	0.00413819
-4.47901e-008	0.00133057
-4.47651e-008	0.00295411
-4.47401e-008	0.002417
-4.47151e-008	0.000659183
-4.46901e-008	-0.00119629
-4.46651e-008	-0.00169677
-4.46401e-008	0.00581055
-4.46151e-008	0.00390625
-4.45901e-008	-0.00179443
-4.45651e-008	0.00278321
-4.45401e-008	0.00115967
-4.45151e-008	-0.00593261
-4.44901e-008	-0.006958
-4.44651e-008	-0.0053955
-4.44401e-008	-7.32385e-005
-4.44151e-008	0.00208741
-4.43901e-008	-0.00433349
-4.43651e-008	-0.0022583
-4.43401e-008	0.00133057
-4.43151e-008	-0.00201416
-4.42901e-008	-0.00413818
-4.42651e-008	-0.00736084
-4.42401e-008	-0.00384521
-4.42151e-008	0.00180664
-4.41901e-008	-3.66174e-005
-4.41651e-008	-0.000671383
-4.41401e-008	-3.66174e-005
-4.41151e-008	-0.0017456
-4.40901e-008	-0.00167236
-4.40651e-008	-0.00251464
-4.40401e-008	0.000793461
-4.40151e-008	0.00690918
-4.39901e-008	0.000158695
-4.39651e-008	-0.000988766
-4.39401e-008	0.00601807
-4.39151e-008	0.00395508
-4.38901e-008	0.00192871
-4.38651e-008	-0.00198974
-4.38401e-008	-0.00263672
-4.38151e-008	0.00483399
-4.37901e-008	0.00169678
-4.37651e-008	-0.00509033
-4.37401e-008	-0.00231933
-4.37151e-008	-0.00217285
-4.36901e-008	-0.00505371
-4.36651e-008	-0.00622558
-4.36401e-008	-0.00684814
-4.36151e-008	-0.00412597
-4.35901e-008	-0.000622555
-4.35651e-008	-0.00194091
-4.35401e-008	-0.00562744
-4.35151e-008	-0.000720211
-4.34901e-008	0.00391846
-4.34651e-008	0.00111084
-4.34401e-008	0.000842289
-4.34151e-008	-0.00131836
-4.33901e-008	-0.00266113
-4.33651e-008	-0.00158691
-4.33401e-008	-0.000732418
-4.33151e-008	6.10389e-005
-4.32901e-008	-0.00644531
-4.32651e-008	-0.00673828
-4.32401e-008	0.000109867
-4.32151e-008	0.000280765
-4.31901e-008	-0.00187988
-4.31651e-008	-1.22033e-005
-4.31401e-008	0.00177002
-4.31151e-008	-0.0039917
-4.30901e-008	-0.00480957
-4.30651e-008	-0.00214843
-4.30401e-008	-0.00080566
-4.30151e-008	0.00341797
-4.29901e-008	-0.00206298
-4.29651e-008	-0.0046875
-4.29401e-008	0.00429688
-4.29151e-008	0.0071045
-4.28901e-008	0.00511475
-4.28651e-008	0.00318604
-4.28401e-008	-0.00264892
-4.28151e-008	-0.00281982
-4.27901e-008	0.00292969
-4.27651e-008	-0.000585934
-4.27401e-008	-0.00236816
-4.27151e-008	0.00249024
-4.26901e-008	-0.00285644
-4.26651e-008	-0.00815429
-4.26401e-008	-0.00682373
-4.26151e-008	-0.00314941
-4.25901e-008	0.00292969
-4.25651e-008	-0.00196533
-4.25401e-008	-0.00168457
-4.25151e-008	0.011853
-4.24901e-008	0.00593262
-4.24651e-008	-0.00817871
-4.24401e-008	-0.00274658
-4.24151e-008	0.0057251
-4.23901e-008	0.00402832
-4.23651e-008	-0.000390621
-4.23401e-008	-0.00250244
-4.23151e-008	-0.000720211
-4.22901e-008	-3.66174e-005
-4.22651e-008	-0.0046875
-4.22401e-008	-0.0060913
-4.22151e-008	0.000500492
-4.21901e-008	0.00247803
-4.21651e-008	-0.00211181
-4.21401e-008	-0.00463867
-4.21151e-008	-0.00673828
-4.20901e-008	-0.00115966
-4.20651e-008	0.00567627
-4.20401e-008	-0.000317379
-4.20151e-008	-0.00263672
-4.19901e-008	0.00351563
-4.19651e-008	0.00406495
-4.19401e-008	0.000366215
-4.19151e-008	0.000634769
-4.18901e-008	-0.000622555
-4.18651e-008	-0.00384521
-4.18401e-008	-0.000952145
-4.18151e-008	-0.00185547
-4.17901e-008	-0.00316162
-4.17651e-008	0.0031128
-4.17401e-008	0.00457764
-4.17151e-008	0.00498047
-4.16901e-008	0.00390625
-4.16651e-008	-0.00544433
-4.16401e-008	-0.00397949
-4.16151e-008	0.000500492
-4.15901e-008	-0.00488281
-4.15651e-008	0.000280765
-4.15401e-008	0.00258789
-4.15151e-008	-0.00367431
-4.14901e-008	0.000769047
-4.14651e-008	0.000708012
-4.14401e-008	-0.00200195
-4.14151e-008	0.00345459
-4.13901e-008	0.000122074
-4.13651e-008	-0.00523681
-4.13401e-008	-0.00170898
-4.13151e-008	0.000195316
-4.12901e-008	0.00250245
-4.12651e-008	0.00573731
-4.12401e-008	0.00255127
-4.12151e-008	-0.00343017
-4.11901e-008	-0.00472412
-4.11651e-008	0.000939945
-4.11401e-008	0.0045044
-4.11151e-008	0.00535889
-4.10901e-008	0.00300293
-4.10651e-008	-0.0121216
-4.10401e-008	-0.0128296
-4.10151e-008	0.00275879
-4.09901e-008	0.000805668
-4.09651e-008	-0.00499267
-4.09401e-008	-0.00318603
-4.09151e-008	-0.00240478
-4.08901e-008	-0.00134277
-4.08651e-008	-0.00290527
-4.08401e-008	-0.00546875
-4.08151e-008	-0.0039917
-4.07901e-008	0.000952152
-4.07651e-008	0.00615235
-4.07401e-008	0.00731202
-4.07151e-008	0.00465088
-4.06901e-008	0.00177002
-4.06651e-008	-0.00335693
-4.06401e-008	-0.00465088
-4.06151e-008	0.000915531
-4.05901e-008	-0.000268551
-4.05651e-008	-0.00279541
-4.05401e-008	0.000244144
-4.05151e-008	-0.00341797
-4.04901e-008	-0.00388183
-4.04651e-008	0.00301514
-4.04401e-008	-0.00010986
-4.04151e-008	0.000476078
-4.03901e-008	0.00267334
-4.03651e-008	-0.00700683
-4.03401e-008	-0.00427246
-4.03151e-008	-0.000878903
-4.02901e-008	-0.00683593
-4.02651e-008	-0.00323486
-4.02401e-008	-0.00230713
-4.02151e-008	-0.00235595
-4.01901e-008	-0.000830074
-4.01651e-008	-0.00386963
-4.01401e-008	-0.00129394
-4.01151e-008	0.00217286
-4.00901e-008	-0.000244137
-4.00651e-008	-0.00559082
-4.00401e-008	-0.00281982
-4.00151e-008	0.00360108
-3.99901e-008	0.000415043
-3.99651e-008	8.54529e-005
-3.99401e-008	0.00368653
-3.99151e-008	0.00430909
-3.98901e-008	0.00223389
-3.98651e-008	-0.0027832
-3.98401e-008	-0.00239257
-3.98151e-008	0.000268558
-3.97901e-008	-0.00319824
-3.97651e-008	-0.00423584
-3.97401e-008	0.00338135
-3.97151e-008	0.00759278
-3.96901e-008	-0.00136718
-3.96651e-008	-0.0116089
-3.96401e-008	-0.00728759
-3.96151e-008	-0.00120849
-3.95901e-008	-0.00675048
-3.95651e-008	-0.00534668
-3.95401e-008	0.0043335
-3.95151e-008	0.00422364
-3.94901e-008	-3.66174e-005
-3.94651e-008	0.00158692
-3.94401e-008	0.00590821
-3.94151e-008	0.00457764
-3.93901e-008	-0.00247802
-3.93651e-008	-0.00426025
-3.93401e-008	-0.00247802
-3.93151e-008	-0.00333252
-3.92901e-008	0.00087891
-3.92651e-008	0.00618897
-3.92401e-008	0.00288086
-3.92151e-008	-0.000671383
-3.91901e-008	-0.0046997
-3.91651e-008	-0.00826416
-3.91401e-008	-0.00430908
-3.91151e-008	-0.00373535
-3.90901e-008	-0.00212402
-3.90651e-008	0.00239258
-3.90401e-008	0.00169678
-3.90151e-008	0.00551758
-3.89901e-008	0.00563965
-3.89651e-008	-0.00231933
-3.89401e-008	-0.00189209
-3.89151e-008	0.00108643
-3.88901e-008	-0.00356445
-3.88651e-008	-0.00689697
-3.88401e-008	-0.00159912
-3.88151e-008	-0.00056152
-3.87901e-008	-0.00200195
-3.87651e-008	0.00557862
-3.87401e-008	0.00284424
-3.87151e-008	-0.00592041
-3.86901e-008	-0.00334472
-3.86651e-008	-0.00115966
-3.86401e-008	0.000769047
-3.86151e-008	0.00261231
-3.85901e-008	-0.000195309
-3.85651e-008	0.00266114
-3.85401e-008	0.00458985
-3.85151e-008	-0.00301513
-3.84901e-008	-0.00428466
-3.84651e-008	-0.000866696
-3.84401e-008	-0.00181884
-3.84151e-008	-0.000158688
-3.83901e-008	0.000500492
-3.83651e-008	-0.000378414
-3.83401e-008	1.22108e-005
-3.83151e-008	-0.0020874
-3.82901e-008	-0.00198974
-3.82651e-008	0.00113526
-3.82401e-008	0.00584717
-3.82151e-008	0.0065918
-3.81901e-008	-0.000573727
-3.81651e-008	-0.000927731
-3.81401e-008	0.00264893
-3.81151e-008	0.00185547
-3.80901e-008	0.00203858
-3.80651e-008	-4.88244e-005
-3.80401e-008	-0.00466308
-3.80151e-008	-0.00745849
-3.79901e-008	-0.00205078
-3.79651e-008	0.00319825
-3.79401e-008	-0.000585934
-3.79151e-008	0.000329594
-3.78901e-008	0.00291748
-3.78651e-008	-0.00102539
-3.78401e-008	-0.00218505
-3.78151e-008	0.000952152
-3.77901e-008	0.00253907
-3.77651e-008	0.00194092
-3.77401e-008	-0.000476071
-3.77151e-008	-0.00235595
-3.76901e-008	-0.00253906
-3.76651e-008	-0.00507812
-3.76401e-008	-0.00427246
-3.76151e-008	0.000512699
-3.75901e-008	0.000244144
-3.75651e-008	0.00270996
-3.75401e-008	0.00482178
-3.75151e-008	-6.10314e-005
-3.74901e-008	-0.000256344
-3.74651e-008	-0.00173339
-3.74401e-008	-0.00187988
-3.74151e-008	0.00300293
-3.73901e-008	-0.00198974
-3.73651e-008	-0.00875244
-3.73401e-008	-0.00993652
-3.73151e-008	-0.00882568
-3.72901e-008	-0.00742187
-3.72651e-008	-0.00386963
-3.72401e-008	0.000158695
-3.72151e-008	-0.00380859
-3.71901e-008	-0.00391845
-3.71651e-008	0.00273438
-3.71401e-008	0.00646973
-3.71151e-008	0.00595704
-3.70901e-008	-0.00294189
-3.70651e-008	-0.00611572
-3.70401e-008	0.00368653
-3.70151e-008	0.00301514
-3.69901e-008	-0.00250244
-3.69651e-008	-0.00184326
-3.69401e-008	-0.0072998
-3.69151e-008	-0.00975341
-3.68901e-008	-0.00429687
-3.68651e-008	-7.32385e-005
-3.68401e-008	-0.000878903
-3.68151e-008	-0.00458984
-3.67901e-008	-0.00303955
-3.67651e-008	-0.00108642
-3.67401e-008	-0.00385742
-3.67151e-008	7.32459e-005
-3.66901e-008	0.00585938
-3.66651e-008	0.00162354
-3.66401e-008	-0.00142822
-3.66151e-008	-0.000854488
-3.65901e-008	0.000329594
-3.65651e-008	0.000866703
-3.65401e-008	-0.00491943
-3.65151e-008	-0.00671386
-3.64901e-008	-0.00115966
-3.64651e-008	0.000244144
-3.64401e-008	-0.0015747
-3.64151e-008	-0.00205078
-3.63901e-008	-0.00145263
-3.63651e-008	0.00274659
-3.63401e-008	0.00286866
-3.63151e-008	0.000451664
-3.62901e-008	0.00528565
-3.62651e-008	0.00240479
-3.62401e-008	-0.00158691
-3.62151e-008	0.00578614
-3.61901e-008	-0.000744625
-3.61651e-008	-0.010791
-3.61401e-008	-0.000622555
-3.61151e-008	0.00518799
-3.60901e-008	0.00131836
-3.60651e-008	0.00325928
-3.60401e-008	0.00272217
-3.60151e-008	-0.000585934
-3.59901e-008	-0.00281982
-3.59651e-008	-0.00578613
-3.59401e-008	-0.00229492
-3.59151e-008	0.000500492
-3.58901e-008	-0.000708004
-3.58651e-008	0.0017334
-3.58401e-008	0.00441895
-3.58151e-008	0.00435791
-3.57901e-008	0.000268558
-3.57651e-008	-0.00273437
-3.57401e-008	-0.00106201
-3.57151e-008	-0.0029541
-3.56901e-008	-0.00966797
-3.56651e-008	-0.0069458
-3.56401e-008	0.00279541
-3.56151e-008	0.00251465
-3.55901e-008	-0.00267334
-3.55651e-008	-0.00352783
-3.55401e-008	0.00408936
-3.55151e-008	0.0104858
-3.54901e-008	-0.000769039
-3.54651e-008	-0.00917968
-3.54401e-008	-0.000817867
-3.54151e-008	0.002417
-3.53901e-008	-0.00284423
-3.53651e-008	-0.00329589
-3.53401e-008	0.000415043
-3.53151e-008	-0.000744625
-3.52901e-008	-0.00396728
-3.52651e-008	-0.00302734
-3.52401e-008	-0.00357666
-3.52151e-008	-0.00258789
-3.51901e-008	0.00118409
-3.51651e-008	0.00358887
-3.51401e-008	0.00456543
-3.51151e-008	-0.000415035
-3.50901e-008	-0.00223388
-3.50651e-008	0.00209961
-3.50401e-008	-0.00200195
-3.50151e-008	-0.0103638
-3.49901e-008	-0.00594482
-3.49651e-008	0.00604248
-3.49401e-008	0.00384522
-3.49151e-008	-0.00240478
-3.48901e-008	0.000500492
-3.48651e-008	-0.00369873
-3.48401e-008	-0.00294189
-3.48151e-008	0.00706787
-3.47901e-008	0.00285645
-3.47651e-008	-0.00444336
-3.47401e-008	-0.00136718
-3.47151e-008	0.00804444
-3.46901e-008	0.0084961
-3.46651e-008	-0.00195312
-3.46401e-008	-0.00214843
-3.46151e-008	-0.00211181
-3.45901e-008	-0.00379638
-3.45651e-008	0.000500492
-3.45401e-008	0.00339356
-3.45151e-008	0.005896
-3.44901e-008	-0.000512692
-3.44651e-008	-0.00537109
-3.44401e-008	-0.000952145
-3.44151e-008	-0.00267334
-3.43901e-008	-0.00192871
-3.43651e-008	0.00313721
-3.43401e-008	-0.0012207
-3.43151e-008	-0.00518798
-3.42901e-008	0.00109864
-3.42651e-008	0.00192871
-3.42401e-008	-0.00322265
-3.42151e-008	-0.00197754
-3.41901e-008	-0.0017456
-3.41651e-008	0.000500492
-3.41401e-008	0.00250245
-3.41151e-008	-0.00480957
-3.40901e-008	-0.00473632
-3.40651e-008	-0.000842281
-3.40401e-008	0.00145264
-3.40151e-008	0.0078125
-3.39901e-008	0.00310059
-3.39651e-008	-0.00408935
-3.39401e-008	-0.00405273
-3.39151e-008	-0.00166015
-3.38901e-008	0.00292969
-3.38651e-008	0.00075684
-3.38401e-008	-0.00341797
-3.38151e-008	-0.00201416
-3.37901e-008	0.00257569
-3.37651e-008	0.00306397
-3.37401e-008	-0.00563964
-3.37151e-008	-0.00883789
-3.36901e-008	-0.00109863
-3.36651e-008	0.000207523
-3.36401e-008	-0.00137939
-3.36151e-008	0.00570069
-3.35901e-008	0.00753174
-3.35651e-008	0.00361329
-3.35401e-008	-0.000256344
-3.35151e-008	-0.00394287
-3.34901e-008	-0.0029541
-3.34651e-008	-0.0057373
-3.34401e-008	-0.00318603
-3.34151e-008	0.00559082
-3.33901e-008	0.00189209
-3.33651e-008	-0.00385742
-3.33401e-008	-0.0029663
-3.33151e-008	0.000817875
-3.32901e-008	0.000439457
-3.32651e-008	-0.0019165
-3.32401e-008	0.00262452
-3.32151e-008	0.002417
-3.31901e-008	-0.000830074
-3.31651e-008	-0.00268554
-3.31401e-008	-0.00327148
-3.31151e-008	0.00325928
-3.30901e-008	-0.00239257
-3.30651e-008	-0.0113769
-3.30401e-008	-0.00163574
-3.30151e-008	0.00300293
-3.29901e-008	-0.00327148
-3.29651e-008	-1.22033e-005
-3.29401e-008	0.00501709
-3.29151e-008	-0.000939938
-3.28901e-008	0.000842289
-3.28651e-008	0.00777588
-3.28401e-008	0.000354008
-3.28151e-008	-0.000732418
-3.27901e-008	0.00578614
-3.27651e-008	-0.00119629
-3.27401e-008	-0.00783691
-3.27151e-008	-0.00622558
-3.26901e-008	-0.00758056
-3.26651e-008	-0.00344238
-3.26401e-008	0.0060669
-3.26151e-008	0.00291748
-3.25901e-008	-0.000781246
-3.25651e-008	0.000830082
-3.25401e-008	-0.0012207
-3.25151e-008	-0.00251464
-3.24901e-008	-0.00535888
-3.24651e-008	-0.00179443
-3.24401e-008	0.00362549
-3.24151e-008	-0.000695797
-3.23901e-008	-0.00441894
-3.23651e-008	-0.00578613
-3.23401e-008	-0.00682373
-3.23151e-008	-0.00792236
-3.22901e-008	-0.00537109
-3.22651e-008	0.0017212
-3.22401e-008	0.00292969
-3.22151e-008	-0.00250244
-3.21901e-008	-0.00341797
-3.21651e-008	0.00451661
-3.21401e-008	0.00515137
-3.21151e-008	-0.00218505
-3.20901e-008	-0.00198974
-3.20651e-008	-0.0014038
-3.20401e-008	0.000354008
-3.20151e-008	0.00336914
-3.19901e-008	-0.00270996
-3.19651e-008	-0.00438232
-3.19401e-008	0.000354008
-3.19151e-008	0.000866703
-3.18901e-008	0.000170902
-3.18651e-008	-0.00655517
-3.18401e-008	-0.00894775
-3.18151e-008	0.000976566
-3.17901e-008	0.00668946
-3.17651e-008	0.00695801
-3.17401e-008	-0.000207516
-3.17151e-008	-0.00798339
-3.16901e-008	-0.00345459
-3.16651e-008	-0.00080566
-3.16401e-008	-0.000695797
-3.16151e-008	0.0032959
-3.15901e-008	-0.000659176
-3.15651e-008	-0.00483398
-3.15401e-008	-0.00172119
-3.15151e-008	-0.00363769
-3.14901e-008	-0.00432129
-3.14651e-008	-0.00118408
-3.14401e-008	-0.00267334
-3.14151e-008	-0.00478515
-3.13901e-008	-0.000720211
-3.13651e-008	0.00539551
-3.13401e-008	0.00269776
-3.13151e-008	0.00281983
-3.12901e-008	0.00800782
-3.12651e-008	0.0020752
-3.12401e-008	-0.00528564
-3.12151e-008	-0.00640869
-3.11901e-008	-0.00479736
-3.11651e-008	-0.00269775
-3.11401e-008	-0.00173339
-3.11151e-008	0.0031128
-3.10901e-008	0.00495606
-3.10651e-008	-0.000659176
-3.10401e-008	-0.00107422
-3.10151e-008	0.00327149
-3.09901e-008	0.00250245
-3.09651e-008	0.00217286
-3.09401e-008	0.00432129
-3.09151e-008	0.00430909
-3.08901e-008	0.00279541
-3.08651e-008	-0.0015747
-3.08401e-008	-0.0017456
-3.08151e-008	-0.000256344
-3.07901e-008	-0.000585934
-3.07651e-008	0.00400391
-3.07401e-008	0.00474854
-3.07151e-008	0.00316162
-3.06901e-008	0.00192871
-3.06651e-008	-0.00268554
-3.06401e-008	-0.0045288
-3.06151e-008	-0.00485839
-3.05901e-008	-0.0019165
-3.05651e-008	0.00189209
-3.05401e-008	-0.000158688
-3.05151e-008	0.00285645
-3.04901e-008	0.00175782
-3.04651e-008	-0.00969238
-3.04401e-008	-0.0055664
-3.04151e-008	0.00511475
-3.03901e-008	0.0017212
-3.03651e-008	-0.00445556
-3.03401e-008	-0.00423584
-3.03151e-008	-0.0020874
-3.02901e-008	-0.00172119
-3.02651e-008	-0.00123291
-3.02401e-008	-0.00134277
-3.02151e-008	0.000256351
-3.01901e-008	0.00285645
-3.01651e-008	-8.54455e-005
-3.01401e-008	-0.00158691
-3.01151e-008	0.000610355
-3.00901e-008	-0.0020874
-3.00651e-008	-0.00421142
-3.00401e-008	-0.00332031
-3.00151e-008	-0.00456543
-2.99901e-008	-0.00433349
-2.99651e-008	-0.00115966
-2.99401e-008	0.000744633
-2.99151e-008	0.000317387
-2.98901e-008	0.00343018
-2.98651e-008	0.0071045
-2.98401e-008	0.00109864
-2.98151e-008	-0.00509033
-2.97901e-008	-0.00189209
-2.97651e-008	0.00333252
-2.97401e-008	0.00386963
-2.97151e-008	-0.000476071
-2.96901e-008	-0.000585934
-2.96651e-008	0.00213623
-2.96401e-008	-0.000573727
-2.96151e-008	-0.00250244
-2.95901e-008	0.000976566
-2.95651e-008	0.00406495
-2.95401e-008	-0.000512692
-2.95151e-008	-0.00548095
-2.94901e-008	-0.00435791
-2.94651e-008	-0.00010986
-2.94401e-008	0.00423584
-2.94151e-008	0.00321045
-2.93901e-008	0.00178223
-2.93651e-008	-0.000256344
-2.93401e-008	-0.00289306
-2.93151e-008	0.000744633
-2.92901e-008	0.00301514
-2.92651e-008	0.00118409
-2.92401e-008	-0.000329586
-2.92151e-008	-0.00266113
-2.91901e-008	-0.00776367
-2.91651e-008	-0.00831298
-2.91401e-008	-0.000927731
-2.91151e-008	-0.00161132
-2.90901e-008	-0.00699463
-2.90651e-008	-0.00445556
-2.90401e-008	0.00067139
-2.90151e-008	0.00634766
-2.89901e-008	0.00324707
-2.89651e-008	-0.00679931
-2.89401e-008	-0.00338134
-2.89151e-008	0.000793461
-2.88901e-008	-0.00164795
-2.88651e-008	0.00499268
-2.88401e-008	0.00679932
-2.88151e-008	-0.00262451
-2.87901e-008	-0.00437011
-2.87651e-008	0.00313721
-2.87401e-008	0.00479737
-2.87151e-008	0.00201416
-2.86901e-008	0.00168457
-2.86651e-008	-0.00163574
-2.86401e-008	0.000537113
-2.86151e-008	0.00567627
-2.85901e-008	-0.000830074
-2.85651e-008	-0.00721435
-2.85401e-008	-0.00447998
-2.85151e-008	-0.00197754
-2.84901e-008	-0.00219726
-2.84651e-008	-0.00247802
-2.84401e-008	0.000402836
-2.84151e-008	0.00476075
-2.83901e-008	0.000378422
-2.83651e-008	-0.00474853
-2.83401e-008	-0.000634762
-2.83151e-008	0.00286866
-2.82901e-008	-0.000134274
-2.82651e-008	-0.00240478
-2.82401e-008	-0.000622555
-2.82151e-008	0.000390629
-2.81901e-008	-0.000549313
-2.81651e-008	-0.00354004
-2.81401e-008	-0.00173339
-2.81151e-008	0.000476078
-2.80901e-008	-0.00471191
-2.80651e-008	-0.00454101
-2.80401e-008	-0.00161132
-2.80151e-008	-0.00238037
-2.79901e-008	-0.00117187
-2.79651e-008	-0.00206298
-2.79401e-008	-0.00128173
-2.79151e-008	0.00895996
-2.78901e-008	0.009375
-2.78651e-008	-0.00457763
-2.78401e-008	-0.00566406
-2.78151e-008	0.00390625
-2.77901e-008	0.00408936
-2.77651e-008	-0.00306396
-2.77401e-008	-0.00175781
-2.77151e-008	0.00712891
-2.76901e-008	0.00620118
-2.76651e-008	-0.000341793
-2.76401e-008	-0.000769039
-2.76151e-008	0.00184327
-2.75901e-008	-0.00124511
-2.75651e-008	-0.00449218
-2.75401e-008	0.000317387
-2.75151e-008	-0.000720211
-2.74901e-008	-0.00332031
-2.74651e-008	0.00184327
-2.74401e-008	0.00462647
-2.74151e-008	0.00354004
-2.73901e-008	-0.00219726
-2.73651e-008	-0.00272216
-2.73401e-008	0.0031128
-2.73151e-008	0.00494385
-2.72901e-008	0.00321045
-2.72651e-008	-0.00410156
-2.72401e-008	-0.00168457
-2.72151e-008	0.0053833
-2.71901e-008	-0.00292968
-2.71651e-008	-0.00988769
-2.71401e-008	-0.00847168
-2.71151e-008	-0.00163574
-2.70901e-008	0.00518799
-2.70651e-008	0.00235596
-2.70401e-008	0.00140381
-2.70151e-008	0.00261231
-2.69901e-008	0.00236817
-2.69651e-008	0.00313721
-2.69401e-008	-0.00245361
-2.69151e-008	-0.00563964
-2.68901e-008	0.00075684
-2.68651e-008	0.00563965
-2.68401e-008	0.00291748
-2.68151e-008	-0.00107422
-2.67901e-008	-0.000244137
-2.67651e-008	0.00213623
-2.67401e-008	0.00203858
-2.67151e-008	0.00297852
-2.66901e-008	0.00366211
-2.66651e-008	-0.00200195
-2.66401e-008	-0.00405273
-2.66151e-008	-0.0024292
-2.65901e-008	-0.00184326
-2.65651e-008	0.00235596
-2.65401e-008	-0.00272216
-2.65151e-008	-0.00714111
-2.64901e-008	-0.00194091
-2.64651e-008	-0.0055664
-2.64401e-008	-0.00275879
-2.64151e-008	0.00662842
-2.63901e-008	0.00504151
-2.63651e-008	0.00364991
-2.63401e-008	0.000366215
-2.63151e-008	7.32459e-005
-2.62901e-008	0.00518799
-2.62651e-008	-0.000219723
-2.62401e-008	-0.00183105
-2.62151e-008	0.00208741
-2.61901e-008	-0.00363769
-2.61651e-008	-0.00283203
-2.61401e-008	0.00305176
-2.61151e-008	0.00239258
-2.60901e-008	0.00150147
-2.60651e-008	-0.00567627
-2.60401e-008	-0.00786132
-2.60151e-008	0.0015503
-2.59901e-008	0.000256351
-2.59651e-008	-0.00429687
-2.59401e-008	-0.00178222
-2.59151e-008	-0.00216064
-2.58901e-008	0.000708012
-2.58651e-008	0.00208741
-2.58401e-008	-0.00288086
-2.58151e-008	0.000451664
-2.57901e-008	0.000524906
-2.57651e-008	-0.00467529
-2.57401e-008	-0.00137939
-2.57151e-008	-0.00186767
-2.56901e-008	-0.00209961
-2.56651e-008	0.00203858
-2.56401e-008	-0.000952145
-2.56151e-008	0.000244144
-2.55901e-008	0.00357666
-2.55651e-008	-0.00256347
-2.55401e-008	-0.00682373
-2.55151e-008	-0.00622558
-2.54901e-008	-0.00371093
-2.54651e-008	0.00118409
-2.54401e-008	0.00101319
-2.54151e-008	0.000500492
-2.53901e-008	0.00240479
-2.53651e-008	0.00133057
-2.53401e-008	0.00201416
-2.53151e-008	0.00148926
-2.52901e-008	-0.0010498
-2.52651e-008	-0.0045288
-2.52401e-008	-0.00717773
-2.52151e-008	-0.00684814
-2.51901e-008	-0.0031372
-2.51651e-008	0.00305176
-2.51401e-008	-0.00432129
-2.51151e-008	-0.0115723
-2.50901e-008	-0.00457763
-2.50651e-008	-0.00339355
-2.50401e-008	-0.00321045
-2.50151e-008	-0.00202636
-2.49901e-008	-0.00877685
-2.49651e-008	-0.0107056
-2.49401e-008	-0.00321045
-2.49151e-008	-0.000244137
-2.48901e-008	-0.00501709
-2.48651e-008	-0.0024414
-2.48401e-008	0.00573731
-2.48151e-008	0.00570069
-2.47901e-008	-0.00150146
-2.47651e-008	-0.00587158
-2.47401e-008	-0.000866696
-2.47151e-008	0.00361329
-2.46901e-008	8.54529e-005
-2.46651e-008	-0.00214843
-2.46401e-008	-9.76525e-005
-2.46151e-008	-0.00291748
-2.45901e-008	-0.00675048
-2.45651e-008	-0.000451656
-2.45401e-008	0.00582276
-2.45151e-008	0.00496827
-2.44901e-008	-0.00111084
-2.44651e-008	-0.00987548
-2.44401e-008	-0.00457763
-2.44151e-008	0.00440674
-2.43901e-008	0.000122074
-2.43651e-008	-0.00166015
-2.43401e-008	0.00292969
-2.43151e-008	0.00673829
-2.42901e-008	0.00699463
-2.42651e-008	0.00179444
-2.42401e-008	-0.000793453
-2.42151e-008	0.00206299
-2.41901e-008	0.00205079
-2.41651e-008	-0.00351562
-2.41401e-008	-0.00460205
-2.41151e-008	0.00256348
-2.40901e-008	0.00166016
-2.40651e-008	-0.00588379
-2.40401e-008	-0.00465088
-2.40151e-008	-0.00220947
-2.39901e-008	0.000500492
-2.39651e-008	0.00500489
-2.39401e-008	0.00323487
-2.39151e-008	0.00087891
-2.38901e-008	0.000390629
-2.38651e-008	0.00465088
-2.38401e-008	0.00653077
-2.38151e-008	-0.00080566
-2.37901e-008	-0.00112304
-2.37651e-008	-0.000158688
-2.37401e-008	-0.000866696
-2.37151e-008	0.00310059
-2.36901e-008	-0.0036499
-2.36651e-008	-0.0129639
-2.36401e-008	-0.00572509
-2.36151e-008	0.00150147
-2.35901e-008	-0.00478515
-2.35651e-008	-0.00837402
-2.35401e-008	-0.00290527
-2.35151e-008	0.00112305
-2.34901e-008	0.00109864
-2.34651e-008	-0.000842281
-2.34401e-008	-0.000903317
-2.34151e-008	0.00075684
-2.33901e-008	-0.00407714
-2.33651e-008	-0.00864257
-2.33401e-008	-0.00256347
-2.33151e-008	0.0038086
-2.32901e-008	-0.000378414
-2.32651e-008	-0.0055542
-2.32401e-008	1.22108e-005
-2.32151e-008	0.00345459
-2.31901e-008	-0.00247802
-2.31651e-008	-0.00281982
-2.31401e-008	0.00118409
-2.31151e-008	-0.00305175
-2.30901e-008	-0.00642089
-2.30651e-008	-0.00241699
-2.30401e-008	-0.00010986
-2.30151e-008	-0.000598141
-2.29901e-008	-0.0031372
-2.29651e-008	-0.00179443
-2.29401e-008	0.00128174
-2.29151e-008	0.000634769
-2.28901e-008	0.000317387
-2.28651e-008	-0.00164795
-2.28401e-008	-0.000268551
-2.28151e-008	0.00067139
-2.27901e-008	-0.00245361
-2.27651e-008	0.00130616
-2.27401e-008	0.00527344
-2.27151e-008	0.00134278
-2.26901e-008	-0.00228271
-2.26651e-008	-0.00212402
-2.26401e-008	-0.00218505
-2.26151e-008	-0.00211181
-2.25901e-008	-0.0045288
-2.25651e-008	-0.00627441
-2.25401e-008	0.000817875
-2.25151e-008	0.00573731
-2.24901e-008	0.00184327
-2.24651e-008	-0.00144043
-2.24401e-008	0.00164795
-2.24151e-008	0.00557862
-2.23901e-008	-0.000415035
-2.23651e-008	-0.00610351
-2.23401e-008	-0.00267334
-2.23151e-008	-0.00246582
-2.22901e-008	0.000122074
-2.22651e-008	0.00261231
-2.22401e-008	0.000610355
-2.22151e-008	0.00391846
-2.21901e-008	-0.00175781
-2.21651e-008	-0.00458984
-2.21401e-008	0.000976566
-2.21151e-008	-0.00509033
-2.20901e-008	-0.00480957
-2.20651e-008	-0.00137939
-2.20401e-008	-0.00249023
-2.20151e-008	0.00296631
-2.19901e-008	0.000732426
-2.19651e-008	-0.00161132
-2.19401e-008	0.00292969
-2.19151e-008	0.000476078
-2.18901e-008	-0.000842281
-2.18651e-008	-0.000646969
-2.18401e-008	0.000610355
-2.18151e-008	-0.000537106
-2.17901e-008	-0.00449218
-2.17651e-008	0.00280762
-2.17401e-008	0.00279541
-2.17151e-008	-0.00375976
-2.16901e-008	0.00113526
-2.16651e-008	0.00281983
-2.16401e-008	0.00230713
-2.16151e-008	0.00230713
-2.15901e-008	-0.00250244
-2.15651e-008	-0.00222168
-2.15401e-008	-0.00280761
-2.15151e-008	-0.00708007
-2.14901e-008	-0.00163574
-2.14651e-008	0.00281983
-2.14401e-008	0.00136719
-2.14151e-008	0.00285645
-2.13901e-008	0.00292969
-2.13651e-008	-0.000244137
-2.13401e-008	-0.00441894
-2.13151e-008	-0.00665283
-2.12901e-008	-0.00594482
-2.12651e-008	-0.00480957
-2.12401e-008	-0.00136718
-2.12151e-008	0.00355225
-2.11901e-008	-0.00273437
-2.11651e-008	-0.0109863
-2.11401e-008	-0.00269775
-2.11151e-008	0.00201416
-2.10901e-008	0.000976566
-2.10651e-008	0.00458985
-2.10401e-008	0.00134278