# LECROYWM813Zi	51496	Waveform
# Segments	1	SegmentSize	4002
# Segment	TrigTime	TimeSinceSegment1
# #1	30-Nov-2018 17:25:05	0                 
# Time	Ampl
-5.002314e-008	0.0238281
-4.999814e-008	0.0164063
-4.997314e-008	0.0187988
-4.994814e-008	0.0242432
-4.992314e-008	0.0168701
-4.989814e-008	0.0195068
-4.987314e-008	0.0264649
-4.984814e-008	0.0307861
-4.982314e-008	0.033374
-4.979814e-008	0.0215088
-4.977314e-008	0.0203613
-4.974814e-008	0.0284424
-4.972314e-008	0.018335
-4.969814e-008	0.0181641
-4.967314e-008	0.0274414
-4.964814e-008	0.0218506
-4.962314e-008	0.0177002
-4.959814e-008	0.0138672
-4.957314e-008	0.010669
-4.954814e-008	0.0154541
-4.952314e-008	0.0175537
-4.949814e-008	0.0257813
-4.947314e-008	0.0263184
-4.944814e-008	0.0112793
-4.942314e-008	0.0213379
-4.939814e-008	0.0382813
-4.937314e-008	0.0285645
-4.934814e-008	0.01875
-4.932314e-008	0.0175049
-4.929814e-008	0.0155029
-4.927314e-008	0.0153076
-4.924814e-008	0.0250244
-4.922314e-008	0.0337158
-4.919814e-008	0.0217041
-4.917314e-008	0.0165527
-4.914814e-008	0.0278565
-4.912314e-008	0.0246582
-4.909814e-008	0.0157715
-4.907314e-008	0.0232422
-4.904814e-008	0.035083
-4.902314e-008	0.0335205
-4.899814e-008	0.0243164
-4.897314e-008	0.0184082
-4.894814e-008	0.0195313
-4.892314e-008	0.0195557
-4.889814e-008	0.0120117
-4.887314e-008	0.0124756
-4.884814e-008	0.0281006
-4.882314e-008	0.0376221
-4.879814e-008	0.0241699
-4.877314e-008	0.017627
-4.874814e-008	0.0245117
-4.872314e-008	0.0150391
-4.869814e-008	0.0100586
-4.867314e-008	0.0178223
-4.864814e-008	0.0269287
-4.862314e-008	0.0190918
-4.859814e-008	-0.0072998
-4.857314e-008	0.0038086
-4.854814e-008	0.0181397
-4.852314e-008	0.0108643
-4.849814e-008	0.0251221
-4.847314e-008	0.0221436
-4.844814e-008	0.0167969
-4.842314e-008	0.0354248
-4.839814e-008	0.0285156
-4.837314e-008	0.0172607
-4.834814e-008	0.0259033
-4.832314e-008	0.0260986
-4.829814e-008	0.0216309
-4.827314e-008	0.0145752
-4.824814e-008	0.0140137
-4.822314e-008	0.0267334
-4.819814e-008	0.0134033
-4.817314e-008	0.00937501
-4.814814e-008	0.0379395
-4.812314e-008	0.0337891
-4.809814e-008	0.0138672
-4.807314e-008	0.0116943
-4.804814e-008	0.0236816
-4.802314e-008	0.0312256
-4.799814e-008	0.0118897
-4.797314e-008	0.0113525
-4.794814e-008	0.0299316
-4.792314e-008	0.0304932
-4.789814e-008	0.0319092
-4.787314e-008	0.0345947
-4.784814e-008	0.0265137
-4.782314e-008	0.0178467
-4.779814e-008	0.0196045
-4.777314e-008	0.0178223
-4.774814e-008	0.0161865
-4.772314e-008	0.0256592
-4.769814e-008	0.0230225
-4.767314e-008	0.0215088
-4.764814e-008	0.0283447
-4.762314e-008	0.030249
-4.759814e-008	0.0244629
-4.757314e-008	0.0141357
-4.754814e-008	0.0200195
-4.752314e-008	0.0200195
-4.749814e-008	0.0132324
-4.747314e-008	0.0205811
-4.744814e-008	0.0284912
-4.742314e-008	0.0372803
-4.739814e-008	0.0272949
-4.737314e-008	0.0141357
-4.734814e-008	0.0251709
-4.732314e-008	0.0251709
-4.729814e-008	0.0164063
-4.727314e-008	0.0161377
-4.724814e-008	0.0193604
-4.722314e-008	0.0257813
-4.719814e-008	0.0202393
-4.717314e-008	0.0153565
-4.714814e-008	0.022168
-4.712314e-008	0.0199463
-4.709814e-008	0.0161133
-4.707314e-008	0.0136719
-4.704814e-008	0.0224365
-4.702314e-008	0.0351318
-4.699814e-008	0.0203125
-4.697314e-008	0.0185791
-4.694814e-008	0.0266846
-4.692314e-008	0.0125732
-4.689814e-008	0.0147461
-4.687314e-008	0.0226563
-4.684814e-008	0.0245361
-4.682314e-008	0.0328369
-4.679814e-008	0.0225342
-4.677314e-008	0.010669
-4.674814e-008	0.0157227
-4.672314e-008	0.017749
-4.669814e-008	0.0244141
-4.667314e-008	0.0263916
-4.664814e-008	0.021582
-4.662314e-008	0.0196289
-4.659814e-008	0.00695802
-4.657314e-008	0.0150147
-4.654814e-008	0.0310059
-4.652314e-008	0.0225586
-4.649814e-008	0.0261963
-4.647314e-008	0.0255615
-4.644814e-008	0.0150879
-4.642314e-008	0.0224854
-4.639814e-008	0.02229
-4.637314e-008	0.0127686
-4.634814e-008	0.0146973
-4.632314e-008	0.0209961
-4.629814e-008	0.0260498
-4.627314e-008	0.0283936
-4.624814e-008	0.0249268
-4.622314e-008	0.0198486
-4.619814e-008	0.00925294
-4.617314e-008	0.00263673
-4.614814e-008	0.0229492
-4.612314e-008	0.0369873
-4.609814e-008	0.0198731
-4.607314e-008	0.0160889
-4.604814e-008	0.0363525
-4.602314e-008	0.0375
-4.599814e-008	0.012915
-4.597314e-008	0.00827637
-4.594814e-008	0.0252686
-4.592314e-008	0.0229492
-4.589814e-008	0.0203125
-4.587314e-008	0.027832
-4.584814e-008	0.02146
-4.582314e-008	0.0193359
-4.579814e-008	0.0230225
-4.577314e-008	0.0205078
-4.574814e-008	0.0182373
-4.572314e-008	0.0177979
-4.569814e-008	0.0140625
-4.567314e-008	0.00715333
-4.564814e-008	0.0184082
-4.562314e-008	0.0273682
-4.559814e-008	0.0165772
-4.557314e-008	0.0203857
-4.554814e-008	0.0292236
-4.552314e-008	0.0250733
-4.549814e-008	0.0154053
-4.547314e-008	0.0148193
-4.544814e-008	0.0266846
-4.542314e-008	0.0249024
-4.539814e-008	0.0188232
-4.537314e-008	0.0200195
-4.534814e-008	0.012207
-4.532314e-008	0.0120606
-4.529814e-008	0.0202393
-4.527314e-008	0.00673829
-4.524814e-008	0.00615235
-4.522314e-008	0.0323486
-4.519814e-008	0.02854
-4.517314e-008	0.0164551
-4.514814e-008	0.0219238
-4.512314e-008	0.0159668
-4.509814e-008	0.00859376
-4.507314e-008	0.00920411
-4.504814e-008	0.0210693
-4.502314e-008	0.0269531
-4.499814e-008	0.0143555
-4.497314e-008	0.0115723
-4.494814e-008	0.0133301
-4.492314e-008	0.0208496
-4.489814e-008	0.0300293
-4.487314e-008	0.0129639
-4.484814e-008	0.00473634
-4.482314e-008	0.0208496
-4.479814e-008	0.023291
-4.477314e-008	0.0200195
-4.474814e-008	0.0278076
-4.472314e-008	0.0329834
-4.469814e-008	0.0292969
-4.467314e-008	0.0208008
-4.464814e-008	0.0173096
-4.462314e-008	0.0181641
-4.459814e-008	0.0169678
-4.457314e-008	0.0184082
-4.454814e-008	0.0221924
-4.452314e-008	0.0192871
-4.449814e-008	0.0115479
-4.447314e-008	0.0185059
-4.444814e-008	0.0341553
-4.442314e-008	0.0308594
-4.439814e-008	0.0152588
-4.437314e-008	0.0188477
-4.434814e-008	0.0331055
-4.432314e-008	0.0263916
-4.429814e-008	0.0175049
-4.427314e-008	0.0179199
-4.424814e-008	0.0153076
-4.422314e-008	0.0169678
-4.419814e-008	0.0169678
-4.417314e-008	0.017334
-4.414814e-008	0.0249512
-4.412314e-008	0.0312988
-4.409814e-008	0.0290772
-4.407314e-008	0.0259033
-4.404814e-008	0.0307861
-4.402314e-008	0.0296875
-4.399814e-008	0.0265381
-4.397314e-008	0.0160156
-4.394814e-008	-0.000976555
-4.392314e-008	0.00681153
-4.389814e-008	0.0191895
-4.387314e-008	0.0181641
-4.384814e-008	0.00925294
-4.382314e-008	0.0112793
-4.379814e-008	0.0354492
-4.377314e-008	0.0340332
-4.374814e-008	0.0217529
-4.372314e-008	0.0302246
-4.369814e-008	0.0229981
-4.367314e-008	0.0144043
-4.364814e-008	0.031665
-4.362314e-008	0.0325195
-4.359814e-008	0.00751954
-4.357314e-008	0.0154053
-4.354814e-008	0.0344483
-4.352314e-008	0.0224365
-4.349814e-008	0.0246582
-4.347314e-008	0.0270752
-4.344814e-008	0.0102051
-4.342314e-008	0.0134522
-4.339814e-008	0.0226318
-4.337314e-008	0.0251709
-4.334814e-008	0.0245117
-4.332314e-008	0.016626
-4.329814e-008	0.019458
-4.327314e-008	0.0264893
-4.324814e-008	0.0277588
-4.322314e-008	0.0296875
-4.319814e-008	0.0205811
-4.317314e-008	0.0084961
-4.314814e-008	0.00729981
-4.312314e-008	0.00314942
-4.309814e-008	0.0116943
-4.307314e-008	0.0285889
-4.304814e-008	0.025415
-4.302314e-008	0.0227539
-4.299814e-008	0.0147705
-4.297314e-008	0.00979005
-4.294814e-008	0.0243408
-4.292314e-008	0.0248047
-4.289814e-008	0.026001
-4.287314e-008	0.0303711
-4.284814e-008	0.0181885
-4.282314e-008	0.0124512
-4.279814e-008	0.0152588
-4.277314e-008	0.0241943
-4.274814e-008	0.0373047
-4.272314e-008	0.0322998
-4.269814e-008	0.0178955
-4.267314e-008	0.0174072
-4.264814e-008	0.0108887
-4.262314e-008	0.00168458
-4.259814e-008	0.0160889
-4.257314e-008	0.0157959
-4.254814e-008	0.00283204
-4.252314e-008	0.0193848
-4.249814e-008	0.0303467
-4.247314e-008	0.0227295
-4.244814e-008	0.0335205
-4.242314e-008	0.0343994
-4.239814e-008	0.0108887
-4.237314e-008	0.0149658
-4.234814e-008	0.0236328
-4.232314e-008	0.0112549
-4.229814e-008	0.0153809
-4.227314e-008	0.0185059
-4.224814e-008	0.0177246
-4.222314e-008	0.0306641
-4.219814e-008	0.0359619
-4.217314e-008	0.0335205
-4.214814e-008	0.0131836
-4.212314e-008	-0.00639648
-4.209814e-008	0.0196533
-4.207314e-008	0.0286133
-4.204814e-008	0.0122559
-4.202314e-008	0.0370361
-4.199814e-008	0.0397461
-4.197314e-008	0.0146484
-4.194814e-008	0.0263916
-4.192314e-008	0.0303223
-4.189814e-008	0.023877
-4.187314e-008	0.0315674
-4.184814e-008	0.0254639
-4.182314e-008	0.0155029
-4.179814e-008	0.0053711
-4.177314e-008	0.00463868
-4.174814e-008	0.025293
-4.172314e-008	0.0225342
-4.169814e-008	0.0167481
-4.167314e-008	0.029126
-4.164814e-008	0.0230225
-4.162314e-008	0.0216797
-4.159814e-008	0.0242432
-4.157314e-008	0.0142822
-4.154814e-008	0.0164063
-4.152314e-008	0.019165
-4.149814e-008	0.0137451
-4.147314e-008	0.0149902
-4.144814e-008	0.0229248
-4.142314e-008	0.023999
-4.139814e-008	0.0159668
-4.137314e-008	0.0174805
-4.134814e-008	0.023999
-4.132314e-008	0.0229492
-4.129814e-008	0.0243897
-4.127314e-008	0.0216797
-4.124814e-008	0.00844727
-4.122314e-008	0.00683595
-4.119814e-008	0.0153565
-4.117314e-008	0.0127686
-4.114814e-008	0.0102051
-4.112314e-008	0.0173584
-4.109814e-008	0.0255615
-4.107314e-008	0.0295166
-4.104814e-008	0.0311524
-4.102314e-008	0.026001
-4.099814e-008	0.0103272
-4.097314e-008	0.0176514
-4.094814e-008	0.0269531
-4.092314e-008	0.00595704
-4.089814e-008	-0.000708
-4.087314e-008	0.0111816
-4.084814e-008	0.0308106
-4.082314e-008	0.0269043
-4.079814e-008	-0.00402831
-4.077314e-008	0.00354005
-4.074814e-008	0.0243652
-4.072314e-008	0.0268799
-4.069814e-008	0.0159424
-4.067314e-008	0.0114746
-4.064814e-008	0.0375244
-4.062314e-008	0.0329346
-4.059814e-008	-0.000341789
-4.057314e-008	0.0119385
-4.054814e-008	0.0344238
-4.052314e-008	0.0170654
-4.049814e-008	0.0167481
-4.047314e-008	0.0360108
-4.044814e-008	0.0227783
-4.042314e-008	0.0158936
-4.039814e-008	0.0237793
-4.037314e-008	0.019043
-4.034814e-008	0.0167969
-4.032314e-008	0.0203125
-4.029814e-008	0.013208
-4.027314e-008	-0.00273437
-4.024814e-008	0.0065918
-4.022314e-008	0.0283936
-4.019814e-008	0.0320557
-4.017314e-008	0.0282227
-4.014814e-008	0.0237061
-4.012314e-008	0.0233154
-4.009814e-008	0.0199951
-4.007314e-008	0.0158203
-4.004814e-008	0.0296143
-4.002314e-008	0.0386475
-3.999814e-008	0.0228272
-3.997314e-008	0.0171631
-3.994814e-008	0.0229004
-3.992314e-008	0.0162598
-3.989814e-008	0.0229736
-3.987314e-008	0.0297363
-3.984814e-008	0.0238037
-3.982314e-008	0.0300293
-3.979814e-008	0.023877
-3.977314e-008	0.0159424
-3.974814e-008	0.0312012
-3.972314e-008	0.0311524
-3.969814e-008	0.0134766
-3.967314e-008	0.0134522
-3.964814e-008	0.0212647
-3.962314e-008	0.0211914
-3.959814e-008	0.0236816
-3.957314e-008	0.021582
-3.954814e-008	0.0219482
-3.952314e-008	0.0282959
-3.949814e-008	0.0260742
-3.947314e-008	0.0250488
-3.944814e-008	0.0299805
-3.942314e-008	0.0385742
-3.939814e-008	0.0303955
-3.937314e-008	0.0181397
-3.934814e-008	0.0211182
-3.932314e-008	0.0134033
-3.929814e-008	0.0277344
-3.927314e-008	0.0426025
-3.924814e-008	0.0176758
-3.922314e-008	0.0119385
-3.919814e-008	0.0162598
-3.917314e-008	0.0158936
-3.914814e-008	0.0265381
-3.912314e-008	0.0278565
-3.909814e-008	0.0305908
-3.907314e-008	0.0204346
-3.904814e-008	0.00754395
-3.902314e-008	0.0285156
-3.899814e-008	0.030542
-3.897314e-008	0.0173096
-3.894814e-008	0.0301025
-3.892314e-008	0.0293701
-3.889814e-008	0.0201416
-3.887314e-008	0.0185059
-3.884814e-008	0.0164795
-3.882314e-008	0.0225586
-3.879814e-008	0.00869141
-3.877314e-008	-0.00344238
-3.874814e-008	0.0183594
-3.872314e-008	0.0292725
-3.869814e-008	0.0245117
-3.867314e-008	0.020166
-3.864814e-008	0.0166504
-3.862314e-008	0.0214356
-3.859814e-008	0.0224121
-3.857314e-008	0.025415
-3.854814e-008	0.0340576
-3.852314e-008	0.0250488
-3.849814e-008	0.0108154
-3.847314e-008	0.0191406
-3.844814e-008	0.0288818
-3.842314e-008	0.019751
-3.839814e-008	0.0156494
-3.837314e-008	0.0217285
-3.834814e-008	0.0246582
-3.832314e-008	0.0236816
-3.829814e-008	0.0215088
-3.827314e-008	0.0258057
-3.824814e-008	0.0274902
-3.822314e-008	0.0211914
-3.819814e-008	0.0261475
-3.817314e-008	0.0341065
-3.814814e-008	0.0244385
-3.812314e-008	0.0159424
-3.809814e-008	0.0164063
-3.807314e-008	0.0150879
-3.804814e-008	0.0243652
-3.802314e-008	0.0253906
-3.799814e-008	0.0157959
-3.797314e-008	0.0289795
-3.794814e-008	0.0362549
-3.792314e-008	0.0243408
-3.789814e-008	0.0145264
-3.787314e-008	0.012915
-3.784814e-008	0.0249024
-3.782314e-008	0.0261231
-3.779814e-008	0.015918
-3.777314e-008	0.0142334
-3.774814e-008	0.0141602
-3.772314e-008	0.0212402
-3.769814e-008	0.0249512
-3.767314e-008	0.0178711
-3.764814e-008	0.0251953
-3.762314e-008	0.028125
-3.759814e-008	0.00959473
-3.757314e-008	0.00288087
-3.754814e-008	0.0154053
-3.752314e-008	0.0285156
-3.749814e-008	0.0193115
-3.747314e-008	0.00495606
-3.744814e-008	0.0234375
-3.742314e-008	0.0323242
-3.739814e-008	0.0178955
-3.737314e-008	0.0222656
-3.734814e-008	0.0255859
-3.732314e-008	0.013501
-3.729814e-008	0.0122559
-3.727314e-008	0.018457
-3.724814e-008	0.0172607
-3.722314e-008	0.020166
-3.719814e-008	0.0241943
-3.717314e-008	0.0223633
-3.714814e-008	0.0230713
-3.712314e-008	0.0195801
-3.709814e-008	0.0205322
-3.707314e-008	0.0242676
-3.704814e-008	0.0224121
-3.702314e-008	0.0228516
-3.699814e-008	0.0155274
-3.697314e-008	0.0199463
-3.694814e-008	0.0311279
-3.692314e-008	0.0197998
-3.689814e-008	0.0155274
-3.687314e-008	0.0184815
-3.684814e-008	0.0188477
-3.682314e-008	0.027832
-3.679814e-008	0.0267334
-3.677314e-008	0.0187744
-3.674814e-008	0.0196045
-3.672314e-008	0.0222656
-3.669814e-008	0.0254639
-3.667314e-008	0.0266113
-3.664814e-008	0.0299072
-3.662314e-008	0.0357178
-3.659814e-008	0.0277344
-3.657314e-008	0.0223389
-3.654814e-008	0.0236816
-3.652314e-008	0.0199463
-3.649814e-008	0.020874
-3.647314e-008	0.0168701
-3.644814e-008	0.0218506
-3.642314e-008	0.0297363
-3.639814e-008	0.0166504
-3.637314e-008	0.0140137
-3.634814e-008	0.0168213
-3.632314e-008	0.0183838
-3.629814e-008	0.0310791
-3.627314e-008	0.0293213
-3.624814e-008	0.025293
-3.622314e-008	0.027002
-3.619814e-008	0.0184082
-3.617314e-008	0.0250733
-3.614814e-008	0.0286865
-3.612314e-008	0.0109375
-3.609814e-008	0.0123291
-3.607314e-008	0.0249024
-3.604814e-008	0.029834
-3.602314e-008	0.0287842
-3.599814e-008	0.0253418
-3.597314e-008	0.027124
-3.594814e-008	0.0182373
-3.592314e-008	0.0139404
-3.589814e-008	0.0252441
-3.587314e-008	0.0267822
-3.584814e-008	0.025415
-3.582314e-008	0.0240479
-3.579814e-008	0.016626
-3.577314e-008	0.01521
-3.574814e-008	0.0230225
-3.572314e-008	0.0220215
-3.569814e-008	0.00463868
-3.567314e-008	0.00646973
-3.564814e-008	0.0234375
-3.562314e-008	0.0199219
-3.559814e-008	0.0167969
-3.557314e-008	0.0230469
-3.554814e-008	0.0252441
-3.552314e-008	0.0280762
-3.549814e-008	0.0329346
-3.547314e-008	0.0306152
-3.544814e-008	0.0183106
-3.542314e-008	0.0136719
-3.539814e-008	0.0194336
-3.537314e-008	0.0290283
-3.534814e-008	0.0234863
-3.532314e-008	0.00590821
-3.529814e-008	0.0120117
-3.527314e-008	0.0185547
-3.524814e-008	0.0241699
-3.522314e-008	0.0329834
-3.519814e-008	0.0181641
-3.517314e-008	0.0175049
-3.514814e-008	0.0247559
-3.512314e-008	0.0176514
-3.509814e-008	0.0255615
-3.507314e-008	0.0260986
-3.504814e-008	0.0165527
-3.502314e-008	0.017627
-3.499814e-008	0.012085
-3.497314e-008	0.0171631
-3.494814e-008	0.0260742
-3.492314e-008	0.0133545
-3.489814e-008	0.0179443
-3.487314e-008	0.0292725
-3.484814e-008	0.0221436
-3.482314e-008	0.0267334
-3.479814e-008	0.0264404
-3.477314e-008	0.0138916
-3.474814e-008	0.020166
-3.472314e-008	0.0298828
-3.469814e-008	0.0167481
-3.467314e-008	0.00881348
-3.464814e-008	0.0216797
-3.462314e-008	0.0201904
-3.459814e-008	0.0154053
-3.457314e-008	0.0257324
-3.454814e-008	0.0256348
-3.452314e-008	0.0111328
-3.449814e-008	0.00437012
-3.447314e-008	0.0194336
-3.444814e-008	0.0344727
-3.442314e-008	0.027002
-3.439814e-008	0.0128662
-3.437314e-008	0.0164795
-3.434814e-008	0.02771
-3.432314e-008	0.0250244
-3.429814e-008	0.0228272
-3.427314e-008	0.0259766
-3.424814e-008	0.025415
-3.422314e-008	0.0264404
-3.419814e-008	0.0244141
-3.417314e-008	0.0217041
-3.414814e-008	0.0204834
-3.412314e-008	0.0199463
-3.409814e-008	0.0283447
-3.407314e-008	0.0282715
-3.404814e-008	0.0276123
-3.402314e-008	0.0379883
-3.399814e-008	0.0227295
-3.397314e-008	0.00878907
-3.394814e-008	0.0170899
-3.392314e-008	0.0119629
-3.389814e-008	0.0171875
-3.387314e-008	0.0253662
-3.384814e-008	0.015918
-3.382314e-008	0.0199463
-3.379814e-008	0.0239014
-3.377314e-008	0.0166504
-3.374814e-008	0.0129639
-3.372314e-008	0.0158447
-3.369814e-008	0.0257813
-3.367314e-008	0.023877
-3.364814e-008	0.0236572
-3.362314e-008	0.0367676
-3.359814e-008	0.0297119
-3.357314e-008	0.0235107
-3.354814e-008	0.0400147
-3.352314e-008	0.0403565
-3.349814e-008	0.0272461
-3.347314e-008	0.0158447
-3.344814e-008	0.0116699
-3.342314e-008	0.029541
-3.339814e-008	0.0291748
-3.337314e-008	0.0153565
-3.334814e-008	0.0208984
-3.332314e-008	0.0165772
-3.329814e-008	0.017627
-3.327314e-008	0.0215332
-3.324814e-008	0.0189453
-3.322314e-008	0.0275879
-3.319814e-008	0.0188477
-3.317314e-008	0.0130127
-3.314814e-008	0.0230713
-3.312314e-008	0.0222168
-3.309814e-008	0.0216553
-3.307314e-008	0.0215332
-3.304814e-008	0.0291992
-3.302314e-008	0.035083
-3.299814e-008	0.0197754
-3.297314e-008	0.010669
-3.294814e-008	0.0090088
-3.292314e-008	0.00541993
-3.289814e-008	0.0116211
-3.287314e-008	0.0177979
-3.284814e-008	0.0212402
-3.282314e-008	0.0231445
-3.279814e-008	0.0224365
-3.277314e-008	0.023999
-3.274814e-008	0.0164795
-3.272314e-008	0.0142334
-3.269814e-008	0.0263916
-3.267314e-008	0.0323486
-3.264814e-008	0.0338379
-3.262314e-008	0.0223633
-3.259814e-008	0.00827637
-3.257314e-008	0.0139649
-3.254814e-008	0.0184326
-3.252314e-008	0.0169434
-3.249814e-008	0.0203613
-3.247314e-008	0.0276123
-3.244814e-008	0.0366455
-3.242314e-008	0.0355713
-3.239814e-008	0.018042
-3.237314e-008	0.00886231
-3.234814e-008	0.0201904
-3.232314e-008	0.0290283
-3.229814e-008	0.0202149
-3.227314e-008	0.00893555
-3.224814e-008	0.0254639
-3.222314e-008	0.0388184
-3.219814e-008	0.0126465
-3.217314e-008	-0.00058593
-3.214814e-008	0.0128174
-3.212314e-008	0.0214111
-3.209814e-008	0.0315186
-3.207314e-008	0.0243164
-3.204814e-008	0.0134766
-3.202314e-008	0.0260254
-3.199814e-008	0.0183106
-3.197314e-008	0.0128418
-3.194814e-008	0.0261963
-3.192314e-008	0.0188721
-3.189814e-008	0.0163574
-3.187314e-008	0.0123047
-3.184814e-008	0.00812989
-3.182314e-008	0.0232666
-3.179814e-008	0.0234863
-3.177314e-008	0.0164795
-3.174814e-008	0.0149414
-3.172314e-008	0.0123779
-3.169814e-008	0.0141357
-3.167314e-008	0.0184815
-3.164814e-008	0.0205322
-3.162314e-008	0.0174316
-3.159814e-008	0.0215576
-3.157314e-008	0.0302734
-3.154814e-008	0.0318115
-3.152314e-008	0.0198486
-3.149814e-008	0.00246583
-3.147314e-008	0.00839845
-3.144814e-008	0.0291504
-3.142314e-008	0.0248535
-3.139814e-008	0.000341804
-3.137314e-008	0.00620118
-3.134814e-008	0.024707
-3.132314e-008	0.0156982
-3.129814e-008	0.0203613
-3.127314e-008	0.0342774
-3.124814e-008	0.0314453
-3.122314e-008	0.0332275
-3.119814e-008	0.0260986
-3.117314e-008	0.018335
-3.114814e-008	0.0229248
-3.112314e-008	0.0178711
-3.109814e-008	0.01875
-3.107314e-008	0.0266358
-3.104814e-008	0.0273438
-3.102314e-008	0.0220215
-3.099814e-008	0.00437012
-3.097314e-008	-0.00358886
-3.094814e-008	0.00954591
-3.092314e-008	0.0227295
-3.089814e-008	0.0252441
-3.087314e-008	0.0223877
-3.084814e-008	0.0266846
-3.082314e-008	0.0271484
-3.079814e-008	0.017041
-3.077314e-008	0.0145996
-3.074814e-008	0.0224854
-3.072314e-008	0.0219238
-3.069814e-008	0.00895997
-3.067314e-008	0.00954591
-3.064814e-008	0.0226318
-3.062314e-008	0.0218506
-3.059814e-008	0.0120606
-3.057314e-008	0.00881348
-3.054814e-008	0.0151611
-3.052314e-008	0.0223389
-3.049814e-008	0.028833
-3.047314e-008	0.0335205
-3.044814e-008	0.0244385
-3.042314e-008	0.0240723
-3.039814e-008	0.0283936
-3.037314e-008	0.0166016
-3.034814e-008	0.0158691
-3.032314e-008	0.0142334
-3.029814e-008	0.0156006
-3.027314e-008	0.0294434
-3.024814e-008	0.0206055
-3.022314e-008	0.014624
-3.019814e-008	0.0205078
-3.017314e-008	0.0175537
-3.014814e-008	0.0129395
-3.012314e-008	0.0221924
-3.009814e-008	0.0417236
-3.007314e-008	0.0287598
-3.004814e-008	0.0183838
-3.002314e-008	0.027002
-2.999814e-008	0.0105957
-2.997314e-008	0.0139404
-2.994814e-008	0.0385498
-2.992314e-008	0.035083
-2.989814e-008	0.016919
-2.987314e-008	0.0167481
-2.984814e-008	0.0325684
-2.982314e-008	0.0263916
-2.979814e-008	0.0100586
-2.977314e-008	0.0171387
-2.974814e-008	0.0217529
-2.972314e-008	0.0151611
-2.969814e-008	0.0247803
-2.967314e-008	0.0293457
-2.964814e-008	0.020459
-2.962314e-008	0.0255615
-2.959814e-008	0.0234619
-2.957314e-008	0.0223389
-2.954814e-008	0.0299561
-2.952314e-008	0.0149414
-2.949814e-008	0.0138428
-2.947314e-008	0.0272949
-2.944814e-008	0.0295654
-2.942314e-008	0.0330566
-2.939814e-008	0.0217529
-2.937314e-008	0.0229981
-2.934814e-008	0.0353272
-2.932314e-008	0.0193848
-2.929814e-008	0.0135254
-2.927314e-008	0.023877
-2.924814e-008	0.0290527
-2.922314e-008	0.0301514
-2.919814e-008	0.0153565
-2.917314e-008	0.00202637
-2.914814e-008	0.0123779
-2.912314e-008	0.0242676
-2.909814e-008	0.0154297
-2.907314e-008	0.0167481
-2.904814e-008	0.0375977
-2.902314e-008	0.030127
-2.899814e-008	0.00390626
-2.897314e-008	0.00439454
-2.894814e-008	0.016919
-2.892314e-008	0.0148438
-2.889814e-008	0.0160156
-2.887314e-008	0.0240234
-2.884814e-008	0.0225342
-2.882314e-008	0.0187988
-2.879814e-008	0.0153809
-2.877314e-008	0.020166
-2.874814e-008	0.0291748
-2.872314e-008	0.0249024
-2.869814e-008	0.0217774
-2.867314e-008	0.0220215
-2.864814e-008	0.0246094
-2.862314e-008	0.0297852
-2.859814e-008	0.0218994
-2.857314e-008	0.0120606
-2.854814e-008	0.0186035
-2.852314e-008	0.0278565
-2.849814e-008	0.0194824
-2.847314e-008	0.0181152
-2.844814e-008	0.0319092
-2.842314e-008	0.024292
-2.839814e-008	0.020044
-2.837314e-008	0.0304932
-2.834814e-008	0.0202393
-2.832314e-008	0.0124268
-2.829814e-008	0.0200684
-2.827314e-008	0.031958
-2.824814e-008	0.042627
-2.822314e-008	0.0319092
-2.819814e-008	0.0167236
-2.817314e-008	0.011084
-2.814814e-008	0.0128174
-2.812314e-008	0.0235107
-2.809814e-008	0.0199951
-2.807314e-008	0.0104248
-2.804814e-008	0.0153565
-2.802314e-008	0.017749
-2.799814e-008	0.0164063
-2.797314e-008	0.0213623
-2.794814e-008	0.020459
-2.792314e-008	0.0189453
-2.789814e-008	0.027124
-2.787314e-008	0.0313721
-2.784814e-008	0.0331543
-2.782314e-008	0.0298828
-2.779814e-008	0.0137451
-2.777314e-008	0.0142578
-2.774814e-008	0.0234619
-2.772314e-008	0.013501
-2.769814e-008	0.0195557
-2.767314e-008	0.0297363
-2.764814e-008	0.0244141
-2.762314e-008	0.0291504
-2.759814e-008	0.0170899
-2.757314e-008	0.0052002
-2.754814e-008	0.0164063
-2.752314e-008	0.0254639
-2.749814e-008	0.0301758
-2.747314e-008	0.0154785
-2.744814e-008	0.0103027
-2.742314e-008	0.0310791
-2.739814e-008	0.0325684
-2.737314e-008	0.0209229
-2.734814e-008	0.0278076
-2.732314e-008	0.0378906
-2.729814e-008	0.0241211
-2.727314e-008	0.0184082
-2.724814e-008	0.0279541
-2.722314e-008	0.0205811
-2.719814e-008	0.0189209
-2.717314e-008	0.0269531
-2.714814e-008	0.0219238
-2.712314e-008	0.0196289
-2.709814e-008	0.0227783
-2.707314e-008	0.0140869
-2.704814e-008	0.0135742
-2.702314e-008	0.0223877
-2.699814e-008	0.0210205
-2.697314e-008	0.0260742
-2.694814e-008	0.0256592
-2.692314e-008	0.0148438
-2.689814e-008	0.0228516
-2.687314e-008	0.0334229
-2.684814e-008	0.0287354
-2.682314e-008	0.0222412
-2.679814e-008	0.0202881
-2.677314e-008	0.0234375
-2.674814e-008	0.0341797
-2.672314e-008	0.0368897
-2.669814e-008	0.0206299
-2.667314e-008	0.00478516
-2.664814e-008	0.0091797
-2.662314e-008	0.0216797
-2.659814e-008	0.0123291
-2.657314e-008	0.00737305
-2.654814e-008	0.0210693
-2.652314e-008	0.0219238
-2.649814e-008	0.0259277
-2.647314e-008	0.0272461
-2.644814e-008	0.0239014
-2.642314e-008	0.0334473
-2.639814e-008	0.0270996
-2.637314e-008	0.0162842
-2.634814e-008	0.020044
-2.632314e-008	0.0261719
-2.629814e-008	0.0240967
-2.627314e-008	0.0107178
-2.624814e-008	0.0210205
-2.622314e-008	0.0393311
-2.619814e-008	0.0207764
-2.617314e-008	0.00788575
-2.614814e-008	0.0166748
-2.612314e-008	0.0159424
-2.609814e-008	0.0201904
-2.607314e-008	0.023999
-2.604814e-008	0.0233154
-2.602314e-008	0.034668
-2.599814e-008	0.0313233
-2.597314e-008	0.0208008
-2.594814e-008	0.0263184
-2.592314e-008	0.0275391
-2.589814e-008	0.022168
-2.587314e-008	0.0183838
-2.584814e-008	0.0157959
-2.582314e-008	0.0115723
-2.579814e-008	0.0151611
-2.577314e-008	0.0250977
-2.574814e-008	0.0227295
-2.572314e-008	0.0197754
-2.569814e-008	0.0248047
-2.567314e-008	0.0327637
-2.564814e-008	0.041626
-2.562314e-008	0.0428223
-2.559814e-008	0.0287598
-2.557314e-008	0.0159668
-2.554814e-008	0.0296875
-2.552314e-008	0.0398926
-2.549814e-008	0.02771
-2.547314e-008	0.0118652
-2.544814e-008	0.00722657
-2.542314e-008	0.018335
-2.539814e-008	0.0107422
-2.537314e-008	0.00957032
-2.534814e-008	0.0313477
-2.532314e-008	0.0268311
-2.529814e-008	0.02771
-2.527314e-008	0.0354981
-2.524814e-008	0.025293
-2.522314e-008	0.0305908
-2.519814e-008	0.0278565
-2.517314e-008	0.0109375
-2.514814e-008	0.0172119
-2.512314e-008	0.0229736
-2.509814e-008	0.0149414
-2.507314e-008	0.0201172
-2.504814e-008	0.025415
-2.502314e-008	0.010376
-2.499814e-008	0.0038086
-2.497314e-008	0.0209961
-2.494814e-008	0.030957
-2.492314e-008	0.0160889
-2.489814e-008	0.00788575
-2.487314e-008	0.0309326
-2.484814e-008	0.0449463
-2.482314e-008	0.0309082
-2.479814e-008	0.0248535
-2.477314e-008	0.0240234
-2.474814e-008	0.0182861
-2.472314e-008	0.0212647
-2.469814e-008	0.0263916
-2.467314e-008	0.0245606
-2.464814e-008	0.0257813
-2.462314e-008	0.0243897
-2.459814e-008	0.00422364
-2.457314e-008	0.00783692
-2.454814e-008	0.029834
-2.452314e-008	0.0188477
-2.449814e-008	0.020752
-2.447314e-008	0.0351074
-2.444814e-008	0.0266602
-2.442314e-008	0.0199707
-2.439814e-008	0.0145752
-2.437314e-008	0.0150635
-2.434814e-008	0.021167
-2.432314e-008	0.0212402
-2.429814e-008	0.025708
-2.427314e-008	0.0311768
-2.424814e-008	0.0253906
-2.422314e-008	0.0138184
-2.419814e-008	0.0117188
-2.417314e-008	0.0163818
-2.414814e-008	0.020874
-2.412314e-008	0.0225342
-2.409814e-008	0.025293
-2.407314e-008	0.028125
-2.404814e-008	0.0187744
-2.402314e-008	0.015332
-2.399814e-008	0.0238525
-2.397314e-008	0.0244629
-2.394814e-008	0.018457
-2.392314e-008	0.0147217
-2.389814e-008	0.0237793
-2.387314e-008	0.0328858
-2.384814e-008	0.020874
-2.382314e-008	0.0149658
-2.379814e-008	0.0217529
-2.377314e-008	0.0224854
-2.374814e-008	0.0314209
-2.372314e-008	0.0240723
-2.369814e-008	0.0104492
-2.367314e-008	0.0294678
-2.364814e-008	0.0294678
-2.362314e-008	0.00822755
-2.359814e-008	0.00456544
-2.357314e-008	0.0144531
-2.354814e-008	0.0270508
-2.352314e-008	0.024707
-2.349814e-008	0.0256836
-2.347314e-008	0.0286133
-2.344814e-008	0.0217529
-2.342314e-008	0.0239502
-2.339814e-008	0.0184815
-2.337314e-008	0.0166992
-2.334814e-008	0.0320801
-2.332314e-008	0.0227783
-2.329814e-008	0.00910645
-2.327314e-008	0.0194336
-2.324814e-008	0.0237549
-2.322314e-008	0.0228027
-2.319814e-008	0.0138184
-2.317314e-008	0.00910645
-2.314814e-008	0.0254639
-2.312314e-008	0.0222656
-2.309814e-008	0.0200928
-2.307314e-008	0.0258545
-2.304814e-008	0.0156982
-2.302314e-008	0.0241211
-2.299814e-008	0.0254395
-2.297314e-008	0.0161621
-2.294814e-008	0.0228516
-2.292314e-008	0.0219971
-2.289814e-008	0.0223633
-2.287314e-008	0.0192139
-2.284814e-008	0.0176025
-2.282314e-008	0.031543
-2.279814e-008	0.0303955
-2.277314e-008	0.0192139
-2.274814e-008	0.0143066
-2.272314e-008	0.0090088
-2.269814e-008	0.00327149
-2.267314e-008	0.00566407
-2.264814e-008	0.0214356
-2.262314e-008	0.0267578
-2.259814e-008	0.0139404
-2.257314e-008	0.0105469
-2.254814e-008	0.0214111
-2.252314e-008	0.0297852
-2.249814e-008	0.0266113
-2.247314e-008	0.0229981
-2.244814e-008	0.0271484
-2.242314e-008	0.023999
-2.239814e-008	0.0172363
-2.237314e-008	0.0218506
-2.234814e-008	0.0269531
-2.232314e-008	0.0243408
-2.229814e-008	0.0185303
-2.227314e-008	0.00927735
-2.224814e-008	0.0100342
-2.222314e-008	0.0185547
-2.219814e-008	0.0135986
-2.217314e-008	0.0135986
-2.214814e-008	0.0201416
-2.212314e-008	0.0174561
-2.209814e-008	0.019751
-2.207314e-008	0.0202149
-2.204814e-008	0.0168945
-2.202314e-008	0.026001
-2.199814e-008	0.0320068
-2.197314e-008	0.0227051
-2.194814e-008	0.0195313
-2.192314e-008	0.023584
-2.189814e-008	0.0254395
-2.187314e-008	0.0234375
-2.184814e-008	0.0196777
-2.182314e-008	0.0322266
-2.179814e-008	0.0359863
-2.177314e-008	0.0218994
-2.174814e-008	0.023169
-2.172314e-008	0.0178711
-2.169814e-008	0.0100342
-2.167314e-008	0.0244141
-2.164814e-008	0.0223877
-2.162314e-008	0.00861817
-2.159814e-008	0.0152832
-2.157314e-008	0.0280029
-2.154814e-008	0.0385742
-2.152314e-008	0.0275635
-2.149814e-008	0.00483399
-2.147314e-008	0.0131104
-2.144814e-008	0.0318848
-2.142314e-008	0.0291748
-2.139814e-008	0.011377
-2.137314e-008	0.00288087
-2.134814e-008	0.0119141
-2.132314e-008	0.0260742
-2.129814e-008	0.0323975
-2.127314e-008	0.0205322
-2.124814e-008	0.0147217
-2.122314e-008	0.0222168
-2.119814e-008	0.0196533
-2.117314e-008	0.016626
-2.114814e-008	0.0221191
-2.112314e-008	0.0259766
-2.109814e-008	0.0229736
-2.107314e-008	0.0243897
-2.104814e-008	0.0317139
-2.102314e-008	0.0323242
-2.099814e-008	0.0282715
-2.097314e-008	0.0246826
-2.094814e-008	0.0211914
-2.092314e-008	0.0128418
-2.089814e-008	0.0157959
-2.087314e-008	0.0264893
-2.084814e-008	0.0256836
-2.082314e-008	0.0296631
-2.079814e-008	0.0229492
-2.077314e-008	0.0182129
-2.074814e-008	0.0334961
-2.072314e-008	0.0264649
-2.069814e-008	0.0154785
-2.067314e-008	0.0167725
-2.064814e-008	0.0175537
-2.062314e-008	0.026294
-2.059814e-008	0.0254639
-2.057314e-008	0.0180908
-2.054814e-008	0.0196045
-2.052314e-008	0.0206543
-2.049814e-008	0.0252686
-2.047314e-008	0.032666
-2.044814e-008	0.0256104
-2.042314e-008	0.0161133
-2.039814e-008	0.0131104
-2.037314e-008	0.0116211
-2.034814e-008	0.0176514
-2.032314e-008	0.0118652
-2.029814e-008	0.00695802
-2.027314e-008	0.0204834
-2.024814e-008	0.0316895
-2.022314e-008	0.0356445
-2.019814e-008	0.0224854
-2.017314e-008	0.0141357