# LECROYWM813Zi	51496	Waveform
# Segments	1	SegmentSize	4002
# Segment	TrigTime	TimeSinceSegment1
# #1	30-Nov-2018 17:19:27	0                 
# Time	Ampl
-5.00161e-008	0.0347656
-4.99911e-008	0.00852052
-4.99661e-008	0.00522462
-4.99411e-008	0.0137451
-4.99161e-008	0.0119141
-4.98911e-008	0.0148682
-4.98661e-008	0.0125977
-4.98411e-008	0.0247803
-4.98161e-008	0.0447754
-4.97911e-008	0.0345215
-4.97661e-008	0.019751
-4.97411e-008	0.0198975
-4.97161e-008	0.0252197
-4.96911e-008	0.0285889
-4.96661e-008	0.0229004
-4.96411e-008	0.0196777
-4.96161e-008	0.0243652
-4.95911e-008	0.0187256
-4.95661e-008	0.00969239
-4.95411e-008	0.0156738
-4.95161e-008	0.0212158
-4.94911e-008	0.0209473
-4.94661e-008	0.026001
-4.94411e-008	0.0308106
-4.94161e-008	0.0318359
-4.93911e-008	0.030127
-4.93661e-008	0.0270264
-4.93411e-008	0.026001
-4.93161e-008	0.0190186
-4.92911e-008	0.0165772
-4.92661e-008	0.0254639
-4.92411e-008	0.0263184
-4.92161e-008	0.0251709
-4.91911e-008	0.0194824
-4.91661e-008	0.012793
-4.91411e-008	0.0209717
-4.91161e-008	0.0229004
-4.90911e-008	0.0221924
-4.90661e-008	0.0226074
-4.90411e-008	0.0162842
-4.90161e-008	0.0209961
-4.89911e-008	0.020459
-4.89661e-008	0.0114014
-4.89411e-008	0.0226318
-4.89161e-008	0.0302979
-4.88911e-008	0.0262695
-4.88661e-008	0.023584
-4.88411e-008	0.0162598
-4.88161e-008	0.0263184
-4.87911e-008	0.0311279
-4.87661e-008	0.0191895
-4.87411e-008	0.0216309
-4.87161e-008	0.0209961
-4.86911e-008	0.0237793
-4.86661e-008	0.0246582
-4.86411e-008	0.0183838
-4.86161e-008	0.0300049
-4.85911e-008	0.0288086
-4.85661e-008	0.0198486
-4.85411e-008	0.0299316
-4.85161e-008	0.0297852
-4.84911e-008	0.0195801
-4.84661e-008	0.0191895
-4.84411e-008	0.0288086
-4.84161e-008	0.0362061
-4.83911e-008	0.0230469
-4.83661e-008	0.0150635
-4.83411e-008	0.0209229
-4.83161e-008	0.0209473
-4.82911e-008	0.0239746
-4.82661e-008	0.0081543
-4.82411e-008	-2.44066e-005
-4.82161e-008	0.0212647
-4.81911e-008	0.0169678
-4.81661e-008	0.0157959
-4.81411e-008	0.0272217
-4.81161e-008	0.0172119
-4.80911e-008	0.015625
-4.80661e-008	0.0270996
-4.80411e-008	0.0334473
-4.80161e-008	0.029419
-4.79911e-008	0.0223877
-4.79661e-008	0.0173584
-4.79411e-008	0.0136475
-4.79161e-008	0.0226318
-4.78911e-008	0.0333496
-4.78661e-008	0.0329834
-4.78411e-008	0.0180176
-4.78161e-008	0.0117188
-4.77911e-008	0.0326416
-4.77661e-008	0.030957
-4.77411e-008	0.0263672
-4.77161e-008	0.0408447
-4.76911e-008	0.0153565
-4.76661e-008	0.00585938
-4.76411e-008	0.0374512
-4.76161e-008	0.0315918
-4.75911e-008	0.0134522
-4.75661e-008	0.0183106
-4.75411e-008	0.0232178
-4.75161e-008	0.0245361
-4.74911e-008	0.0308838
-4.74661e-008	0.0322998
-4.74411e-008	0.0249268
-4.74161e-008	0.0284912
-4.73911e-008	0.0219971
-4.73661e-008	0.0163818
-4.73411e-008	0.0348145
-4.73161e-008	0.0311524
-4.72911e-008	0.0173584
-4.72661e-008	0.0167725
-4.72411e-008	0.0216065
-4.72161e-008	0.0297363
-4.71911e-008	0.0180908
-4.71661e-008	0.00678712
-4.71411e-008	0.0130127
-4.71161e-008	0.0189209
-4.70911e-008	0.0260986
-4.70661e-008	0.0311035
-4.70411e-008	0.0319336
-4.70161e-008	0.0313477
-4.69911e-008	0.0241455
-4.69661e-008	0.0198242
-4.69411e-008	0.0219971
-4.69161e-008	0.0213135
-4.68911e-008	0.0203857
-4.68661e-008	0.0165772
-4.68411e-008	0.020752
-4.68161e-008	0.0318115
-4.67911e-008	0.0285156
-4.67661e-008	0.027002
-4.67411e-008	0.0282715
-4.67161e-008	0.0217529
-4.66911e-008	0.0163574
-4.66661e-008	0.0192627
-4.66411e-008	0.0268311
-4.66161e-008	0.0188232
-4.65911e-008	0.014624
-4.65661e-008	0.0226074
-4.65411e-008	0.020752
-4.65161e-008	0.0246094
-4.64911e-008	0.0287842
-4.64661e-008	0.0255371
-4.64411e-008	0.0269775
-4.64161e-008	0.0239258
-4.63911e-008	0.0173096
-4.63661e-008	0.0155029
-4.63411e-008	0.0270508
-4.63161e-008	0.03479
-4.62911e-008	0.0229492
-4.62661e-008	0.0199951
-4.62411e-008	0.0194092
-4.62161e-008	0.0111572
-4.61911e-008	0.0119385
-4.61661e-008	0.0144287
-4.61411e-008	0.0226807
-4.61161e-008	0.0326416
-4.60911e-008	0.0290039
-4.60661e-008	0.02146
-4.60411e-008	0.0251465
-4.60161e-008	0.0338867
-4.59911e-008	0.0206055
-4.59661e-008	0.00671387
-4.59411e-008	0.0189941
-4.59161e-008	0.0226807
-4.58911e-008	0.0164307
-4.58661e-008	0.0212158
-4.58411e-008	0.0224121
-4.58161e-008	0.0215576
-4.57911e-008	0.0207031
-4.57661e-008	0.0136719
-4.57411e-008	0.0147949
-4.57161e-008	0.0224854
-4.56911e-008	0.0232178
-4.56661e-008	0.0182861
-4.56411e-008	0.0203125
-4.56161e-008	0.0284424
-4.55911e-008	0.0204834
-4.55661e-008	0.0158936
-4.55411e-008	0.0307617
-4.55161e-008	0.0263916
-4.54911e-008	0.018042
-4.54661e-008	0.0254395
-4.54411e-008	0.0292236
-4.54161e-008	0.0387207
-4.53911e-008	0.0320557
-4.53661e-008	0.0172119
-4.53411e-008	0.0216797
-4.53161e-008	0.0160156
-4.52911e-008	0.0177979
-4.52661e-008	0.0278565
-4.52411e-008	0.019751
-4.52161e-008	0.0218018
-4.51911e-008	0.0310059
-4.51661e-008	0.0325684
-4.51411e-008	0.0363281
-4.51161e-008	0.0303223
-4.50911e-008	0.0197266
-4.50661e-008	0.0200684
-4.50411e-008	0.0209961
-4.50161e-008	0.0206543
-4.49911e-008	0.017041
-4.49661e-008	0.0120117
-4.49411e-008	0.0162598
-4.49161e-008	0.0188965
-4.48911e-008	0.00961915
-4.48661e-008	0.00839845
-4.48411e-008	0.0300537
-4.48161e-008	0.0344971
-4.47911e-008	0.0141602
-4.47661e-008	0.0120117
-4.47411e-008	0.0130615
-4.47161e-008	0.0103516
-4.46911e-008	0.0256348
-4.46661e-008	0.0310547
-4.46411e-008	0.0225342
-4.46161e-008	0.022583
-4.45911e-008	0.013208
-4.45661e-008	0.013916
-4.45411e-008	0.0329346
-4.45161e-008	0.0298096
-4.44911e-008	0.0272949
-4.44661e-008	0.0319092
-4.44411e-008	0.0328858
-4.44161e-008	0.0395508
-4.43911e-008	0.0248535
-4.43661e-008	0.00717774
-4.43411e-008	0.00944825
-4.43161e-008	0.0101563
-4.42911e-008	0.0140869
-4.42661e-008	0.0205811
-4.42411e-008	0.0248047
-4.42161e-008	0.0312256
-4.41911e-008	0.0261719
-4.41661e-008	0.0226074
-4.41411e-008	0.0335205
-4.41161e-008	0.0230469
-4.40911e-008	0.0129395
-4.40661e-008	0.0253174
-4.40411e-008	0.022168
-4.40161e-008	0.02229
-4.39911e-008	0.0246094
-4.39661e-008	0.0172363
-4.39411e-008	0.0253662
-4.39161e-008	0.0259766
-4.38911e-008	0.0157715
-4.38661e-008	0.014624
-4.38411e-008	0.0301758
-4.38161e-008	0.0440918
-4.37911e-008	0.0306397
-4.37661e-008	0.0206543
-4.37411e-008	0.0173096
-4.37161e-008	0.0164551
-4.36911e-008	0.026001
-4.36661e-008	0.0262695
-4.36411e-008	0.0330322
-4.36161e-008	0.0304932
-4.35911e-008	0.0133301
-4.35661e-008	0.0177979
-4.35411e-008	0.0191406
-4.35161e-008	0.0179932
-4.34911e-008	0.0230225
-4.34661e-008	0.022583
-4.34411e-008	0.0324463
-4.34161e-008	0.0375488
-4.33911e-008	0.0337402
-4.33661e-008	0.026416
-4.33411e-008	0.0182373
-4.33161e-008	0.0251953
-4.32911e-008	0.0234131
-4.32661e-008	0.0143555
-4.32411e-008	0.0193848
-4.32161e-008	0.0202393
-4.31911e-008	0.0192871
-4.31661e-008	0.0268066
-4.31411e-008	0.0281494
-4.31161e-008	0.0216797
-4.30911e-008	0.0237793
-4.30661e-008	0.0273926
-4.30411e-008	0.0256104
-4.30161e-008	0.0262451
-4.29911e-008	0.0210449
-4.29661e-008	0.0206787
-4.29411e-008	0.0297852
-4.29161e-008	0.0310547
-4.28911e-008	0.0304932
-4.28661e-008	0.0262695
-4.28411e-008	0.0228272
-4.28161e-008	0.0294678
-4.27911e-008	0.0278565
-4.27661e-008	0.0190918
-4.27411e-008	0.0183106
-4.27161e-008	0.0276611
-4.26911e-008	0.0282471
-4.26661e-008	0.0160645
-4.26411e-008	0.0233154
-4.26161e-008	0.0264649
-4.25911e-008	0.00935059
-4.25661e-008	0.0120606
-4.25411e-008	0.025708
-4.25161e-008	0.0268555
-4.24911e-008	0.0220703
-4.24661e-008	0.0240479
-4.24411e-008	0.0316162
-4.24161e-008	0.0289551
-4.23911e-008	0.0180176
-4.23661e-008	0.0134522
-4.23411e-008	0.0228027
-4.23161e-008	0.0279297
-4.22911e-008	0.0216797
-4.22661e-008	0.0231445
-4.22411e-008	0.0303467
-4.22161e-008	0.0311035
-4.21911e-008	0.0200928
-4.21661e-008	0.0184082
-4.21411e-008	0.0235596
-4.21161e-008	0.0159424
-4.20911e-008	0.0179688
-4.20661e-008	0.0215576
-4.20411e-008	0.0301514
-4.20161e-008	0.0418213
-4.19911e-008	0.0189453
-4.19661e-008	0.0100098
-4.19411e-008	0.0306397
-4.19161e-008	0.0213867
-4.18911e-008	0.014209
-4.18661e-008	0.0251221
-4.18411e-008	0.0157227
-4.18161e-008	0.0273926
-4.17911e-008	0.035083
-4.17661e-008	0.00869141
-4.17411e-008	0.0161133
-4.17161e-008	0.0254639
-4.16911e-008	0.0218506
-4.16661e-008	0.0300781
-4.16411e-008	0.026294
-4.16161e-008	0.0220215
-4.15911e-008	0.0155518
-4.15661e-008	0.0208008
-4.15411e-008	0.0360596
-4.15161e-008	0.0355225
-4.14911e-008	0.0363281
-4.14661e-008	0.0277588
-4.14411e-008	0.0183838
-4.14161e-008	0.0256104
-4.13911e-008	0.0180908
-4.13661e-008	0.0100586
-4.13411e-008	0.0225098
-4.13161e-008	0.026709
-4.12911e-008	0.0239014
-4.12661e-008	0.0229736
-4.12411e-008	0.024292
-4.12161e-008	0.0286133
-4.11911e-008	0.0198242
-4.11661e-008	0.0138428
-4.11411e-008	0.0245117
-4.11161e-008	0.0329102
-4.10911e-008	0.0179443
-4.10661e-008	0.00227052
-4.10411e-008	0.0229492
-4.10161e-008	0.0311279
-4.09911e-008	0.0142822
-4.09661e-008	0.02229
-4.09411e-008	0.0279541
-4.09161e-008	0.0193359
-4.08911e-008	0.0289307
-4.08661e-008	0.0308594
-4.08411e-008	0.0219238
-4.08161e-008	0.0334717
-4.07911e-008	0.037207
-4.07661e-008	0.0243408
-4.07411e-008	0.0212647
-4.07161e-008	0.0171387
-4.06911e-008	0.00932618
-4.06661e-008	0.0172363
-4.06411e-008	0.0278565
-4.06161e-008	0.0218506
-4.05911e-008	0.0189209
-4.05661e-008	0.0266113
-4.05411e-008	0.0283203
-4.05161e-008	0.020044
-4.04911e-008	0.0164307
-4.04661e-008	0.0218018
-4.04411e-008	0.0178223
-4.04161e-008	0.014624
-4.03911e-008	0.0205322
-4.03661e-008	0.0230469
-4.03411e-008	0.0267334
-4.03161e-008	0.0293701
-4.02911e-008	0.0207764
-4.02661e-008	0.0107422
-4.02411e-008	0.0184815
-4.02161e-008	0.0292481
-4.01911e-008	0.0234131
-4.01661e-008	0.0166992
-4.01411e-008	0.024707
-4.01161e-008	0.0246094
-4.00911e-008	0.0125
-4.00661e-008	0.0275879
-4.00411e-008	0.0292725
-4.00161e-008	0.00969239
-3.99911e-008	0.0185547
-3.99661e-008	0.0163818
-3.99411e-008	0.0230713
-3.99161e-008	0.0398193
-3.98911e-008	0.0192383
-3.98661e-008	0.0169922
-3.98411e-008	0.0291016
-3.98161e-008	0.0227295
-3.97911e-008	0.0190674
-3.97661e-008	0.0206055
-3.97411e-008	0.0288574
-3.97161e-008	0.0293945
-3.96911e-008	0.0212647
-3.96661e-008	0.0181641
-3.96411e-008	0.0214356
-3.96161e-008	0.017041
-3.95911e-008	0.000903328
-3.95661e-008	0.00817872
-3.95411e-008	0.0235352
-3.95161e-008	0.0223145
-3.94911e-008	0.0207031
-3.94661e-008	0.0170166
-3.94411e-008	0.0248779
-3.94161e-008	0.031958
-3.93911e-008	0.0195801
-3.93661e-008	0.0154053
-3.93411e-008	0.0173828
-3.93161e-008	0.0167236
-3.92911e-008	0.0183106
-3.92661e-008	0.016626
-3.92411e-008	0.0251465
-3.92161e-008	0.030249
-3.91911e-008	0.0133301
-3.91661e-008	0.0198242
-3.91411e-008	0.038916
-3.91161e-008	0.0329102
-3.90911e-008	0.031543
-3.90661e-008	0.0257568
-3.90411e-008	0.0173096
-3.90161e-008	0.021582
-3.89911e-008	0.0187744
-3.89661e-008	0.0251465
-3.89411e-008	0.0280518
-3.89161e-008	0.0225586
-3.88911e-008	0.027124
-3.88661e-008	0.0227539
-3.88411e-008	0.0194824
-3.88161e-008	0.0231934
-3.87911e-008	0.0228272
-3.87661e-008	0.0186279
-3.87411e-008	0.025293
-3.87161e-008	0.038794
-3.86911e-008	0.0247803
-3.86661e-008	0.0159912
-3.86411e-008	0.0299072
-3.86161e-008	0.0330811
-3.85911e-008	0.0363525
-3.85661e-008	0.0388916
-3.85411e-008	0.0289795
-3.85161e-008	0.0268066
-3.84911e-008	0.0345215
-3.84661e-008	0.0205566
-3.84411e-008	0.010376
-3.84161e-008	0.0246338
-3.83911e-008	0.0154785
-3.83661e-008	0.0111816
-3.83411e-008	0.0274658
-3.83161e-008	0.022168
-3.82911e-008	0.0186035
-3.82661e-008	0.0223389
-3.82411e-008	0.0246582
-3.82161e-008	0.0313477
-3.81911e-008	0.0280274
-3.81661e-008	0.0245361
-3.81411e-008	0.0296875
-3.81161e-008	0.031958
-3.80911e-008	0.0239258
-3.80661e-008	0.014209
-3.80411e-008	0.0218994
-3.80161e-008	0.0316895
-3.79911e-008	0.0231201
-3.79661e-008	0.0149658
-3.79411e-008	0.0190674
-3.79161e-008	0.0202393
-3.78911e-008	0.0192871
-3.78661e-008	0.0297119
-3.78411e-008	0.0338623
-3.78161e-008	0.0227783
-3.77911e-008	0.0171875
-3.77661e-008	0.0174805
-3.77411e-008	0.0244385
-3.77161e-008	0.0258301
-3.76911e-008	0.0126709
-3.76661e-008	0.0160889
-3.76411e-008	0.0246094
-3.76161e-008	0.0319336
-3.75911e-008	0.0449219
-3.75661e-008	0.0278809
-3.75411e-008	0.0114258
-3.75161e-008	0.020874
-3.74911e-008	0.0215332
-3.74661e-008	0.0195068
-3.74411e-008	0.0252686
-3.74161e-008	0.0295654
-3.73911e-008	0.0216065
-3.73661e-008	0.0179932
-3.73411e-008	0.0233887
-3.73161e-008	0.016333
-3.72911e-008	0.0258545
-3.72661e-008	0.0330811
-3.72411e-008	0.0174561
-3.72161e-008	0.0136719
-3.71911e-008	0.00219727
-3.71661e-008	0.00151368
-3.71411e-008	0.0232422
-3.71161e-008	0.025708
-3.70911e-008	0.0194824
-3.70661e-008	0.0128174
-3.70411e-008	0.0193604
-3.70161e-008	0.0321289
-3.69911e-008	0.0165772
-3.69661e-008	0.00837403
-3.69411e-008	0.0176514
-3.69161e-008	0.0169678
-3.68911e-008	0.0216309
-3.68661e-008	0.0240967
-3.68411e-008	0.0236328
-3.68161e-008	0.036377
-3.67911e-008	0.0331299
-3.67661e-008	0.0171631
-3.67411e-008	0.0234619
-3.67161e-008	0.0333008
-3.66911e-008	0.0240723
-3.66661e-008	0.0157227
-3.66411e-008	0.0213135
-3.66161e-008	0.018042
-3.65911e-008	0.0065918
-3.65661e-008	0.0182373
-3.65411e-008	0.0320801
-3.65161e-008	0.0311768
-3.64911e-008	0.033374
-3.64661e-008	0.021582
-3.64411e-008	0.0131104
-3.64161e-008	0.0231201
-3.63911e-008	0.0169434
-3.63661e-008	0.0154053
-3.63411e-008	0.0276856
-3.63161e-008	0.0230957
-3.62911e-008	0.0121582
-3.62661e-008	0.0190674
-3.62411e-008	0.0294434
-3.62161e-008	0.0200684
-3.61911e-008	0.015625
-3.61661e-008	0.0229248
-3.61411e-008	0.0236328
-3.61161e-008	0.0282959
-3.60911e-008	0.0292725
-3.60661e-008	0.013794
-3.60411e-008	0.0166016
-3.60161e-008	0.0344238
-3.59911e-008	0.0156982
-3.59661e-008	0.00625001
-3.59411e-008	0.027124
-3.59161e-008	0.0240234
-3.58911e-008	0.0203857
-3.58661e-008	0.0166504
-3.58411e-008	0.017749
-3.58161e-008	0.0298828
-3.57911e-008	0.0115723
-3.57661e-008	0.0144775
-3.57411e-008	0.035791
-3.57161e-008	0.0243164
-3.56911e-008	0.0189697
-3.56661e-008	0.0144043
-3.56411e-008	0.0139649
-3.56161e-008	0.026709
-3.55911e-008	0.00561524
-3.55661e-008	-0.00900878
-3.55411e-008	0.0182129
-3.55161e-008	0.0264893
-3.54911e-008	0.0192627
-3.54661e-008	0.0260986
-3.54411e-008	0.0175781
-3.54161e-008	0.00549317
-3.53911e-008	0.0175781
-3.53661e-008	0.0320801
-3.53411e-008	0.0273682
-3.53161e-008	0.0109863
-3.52911e-008	0.00847169
-3.52661e-008	0.0175537
-3.52411e-008	0.0271729
-3.52161e-008	0.0290039
-3.51911e-008	0.0136719
-3.51661e-008	0.0165039
-3.51411e-008	0.0302979
-3.51161e-008	0.0168701
-3.50911e-008	0.0135498
-3.50661e-008	0.0293457
-3.50411e-008	0.0376953
-3.50161e-008	0.0354981
-3.49911e-008	0.0125732
-3.49661e-008	0.0083252
-3.49411e-008	0.0280274
-3.49161e-008	0.0212647
-3.48911e-008	0.0167969
-3.48661e-008	0.0156982
-3.48411e-008	0.00568848
-3.48161e-008	0.0229004
-3.47911e-008	0.0393555
-3.47661e-008	0.0317383
-3.47411e-008	0.0191162
-3.47161e-008	0.0069336
-3.46911e-008	0.0164795
-3.46661e-008	0.0325195
-3.46411e-008	0.0251221
-3.46161e-008	0.0279053
-3.45911e-008	0.0244629
-3.45661e-008	0.0083252
-3.45411e-008	0.0276611
-3.45161e-008	0.0370361
-3.44911e-008	0.028418
-3.44661e-008	0.0341065
-3.44411e-008	0.0246582
-3.44161e-008	0.00700684
-3.43911e-008	0.00703126
-3.43661e-008	0.0239014
-3.43411e-008	0.027002
-3.43161e-008	0.0114502
-3.42911e-008	0.0101807
-3.42661e-008	0.0239502
-3.42411e-008	0.0257324
-3.42161e-008	0.0147461
-3.41911e-008	0.021582
-3.41661e-008	0.0261963
-3.41411e-008	0.028418
-3.41161e-008	0.0344971
-3.40911e-008	0.0109131
-3.40661e-008	0.0115967
-3.40411e-008	0.0377197
-3.40161e-008	0.0333984
-3.39911e-008	0.0281006
-3.39661e-008	0.023999
-3.39411e-008	0.0135986
-3.39161e-008	0.0185303
-3.38911e-008	0.0270996
-3.38661e-008	0.022583
-3.38411e-008	0.0235107
-3.38161e-008	0.0292481
-3.37911e-008	0.0128662
-3.37661e-008	0.00446778
-3.37411e-008	0.0249268
-3.37161e-008	0.030542
-3.36911e-008	0.0170899
-3.36661e-008	0.0223389
-3.36411e-008	0.0368408
-3.36161e-008	0.0304688
-3.35911e-008	0.0182373
-3.35661e-008	0.0161621
-3.35411e-008	0.0183838
-3.35161e-008	0.0245117
-3.34911e-008	0.028125
-3.34661e-008	0.0259277
-3.34411e-008	0.0245606
-3.34161e-008	0.025708
-3.33911e-008	0.0233887
-3.33661e-008	0.0164551
-3.33411e-008	0.0178711
-3.33161e-008	0.0288818
-3.32911e-008	0.0318848
-3.32661e-008	0.0254639
-3.32411e-008	0.0278809
-3.32161e-008	0.034375
-3.31911e-008	0.0306397
-3.31661e-008	0.0303223
-3.31411e-008	0.0244141
-3.31161e-008	0.012915
-3.30911e-008	0.0208252
-3.30661e-008	0.022583
-3.30411e-008	0.0261475
-3.30161e-008	0.0345459
-3.29911e-008	0.0155518
-3.29661e-008	0.0127686
-3.29411e-008	0.0190918
-3.29161e-008	0.0173584
-3.28911e-008	0.0313721
-3.28661e-008	0.0217529
-3.28411e-008	0.0164307
-3.28161e-008	0.0262207
-3.27911e-008	0.0101318
-3.27661e-008	0.0145752
-3.27411e-008	0.0303955
-3.27161e-008	0.0232422
-3.26911e-008	0.0173096
-3.26661e-008	0.0166016
-3.26411e-008	0.0219482
-3.26161e-008	0.0206787
-3.25911e-008	0.010083
-3.25661e-008	0.0164551
-3.25411e-008	0.027417
-3.25161e-008	0.0235107
-3.24911e-008	0.0220947
-3.24661e-008	0.0269043
-3.24411e-008	0.0234863
-3.24161e-008	0.0207764
-3.23911e-008	0.0211426
-3.23661e-008	0.0229004
-3.23411e-008	0.02771
-3.23161e-008	0.0202881
-3.22911e-008	0.013501
-3.22661e-008	0.0200195
-3.22411e-008	0.0302979
-3.22161e-008	0.0320801
-3.21911e-008	0.0150879
-3.21661e-008	0.00756837
-3.21411e-008	0.0146973
-3.21161e-008	0.0199707
-3.20911e-008	0.0310303
-3.20661e-008	0.0299561
-3.20411e-008	0.0244141
-3.20161e-008	0.0280029
-3.19911e-008	0.0200195
-3.19661e-008	0.0156006
-3.19411e-008	0.0175293
-3.19161e-008	0.0189453
-3.18911e-008	0.0272705
-3.18661e-008	0.0195801
-3.18411e-008	0.0133301
-3.18161e-008	0.0262695
-3.17911e-008	0.0229981
-3.17661e-008	0.0179932
-3.17411e-008	0.0287354
-3.17161e-008	0.0253174
-3.16911e-008	0.0112793
-3.16661e-008	0.0168701
-3.16411e-008	0.0361084
-3.16161e-008	0.0349854
-3.15911e-008	0.0202149
-3.15661e-008	0.0230469
-3.15411e-008	0.0264893
-3.15161e-008	0.0201904
-3.14911e-008	0.0289795
-3.14661e-008	0.0310059
-3.14411e-008	0.0154053
-3.14161e-008	0.014502
-3.13911e-008	0.0170899
-3.13661e-008	0.0197022
-3.13411e-008	0.0278076
-3.13161e-008	0.0197754
-3.12911e-008	0.0181152
-3.12661e-008	0.0216309
-3.12411e-008	0.018042
-3.12161e-008	0.0405518
-3.11911e-008	0.0450195
-3.11661e-008	0.0194092
-3.11411e-008	0.0218994
-3.11161e-008	0.030127
-3.10911e-008	0.032251
-3.10661e-008	0.0337647
-3.10411e-008	0.0290039
-3.10161e-008	0.0252686
-3.09911e-008	0.0197998
-3.09661e-008	0.0219727
-3.09411e-008	0.0115234
-3.09161e-008	-0.000292961
-3.08911e-008	0.0168457
-3.08661e-008	0.0269287
-3.08411e-008	0.0263672
-3.08161e-008	0.0244385
-3.07911e-008	0.021582
-3.07661e-008	0.0242432
-3.07411e-008	0.0184815
-3.07161e-008	0.0199219
-3.06911e-008	0.0308594
-3.06661e-008	0.027124
-3.06411e-008	0.0249024
-3.06161e-008	0.0273926
-3.05911e-008	0.0199219
-3.05661e-008	0.0197998
-3.05411e-008	0.0297119
-3.05161e-008	0.0397217
-3.04911e-008	0.0352295
-3.04661e-008	0.0155029
-3.04411e-008	0.0210938
-3.04161e-008	0.0294922
-3.03911e-008	0.0138184
-3.03661e-008	0.0138916
-3.03411e-008	0.0271484
-3.03161e-008	0.0382324
-3.02911e-008	0.0357422
-3.02661e-008	0.0172363
-3.02411e-008	0.0161133
-3.02161e-008	0.0286377
-3.01911e-008	0.0333496
-3.01661e-008	0.0312744
-3.01411e-008	0.0280762
-3.01161e-008	0.0240967
-3.00911e-008	0.0262207
-3.00661e-008	0.0307129
-3.00411e-008	0.0257568
-3.00161e-008	0.0306641
-2.99911e-008	0.0282959
-2.99661e-008	0.01521
-2.99411e-008	0.0192871
-2.99161e-008	0.0193604
-2.98911e-008	0.0244385
-2.98661e-008	0.0322754
-2.98411e-008	0.0331299
-2.98161e-008	0.0342041
-2.97911e-008	0.0162354
-2.97661e-008	0.0134766
-2.97411e-008	0.0297363
-2.97161e-008	0.0302734
-2.96911e-008	0.0311279
-2.96661e-008	0.0230713
-2.96411e-008	0.0138184
-2.96161e-008	0.0199951
-2.95911e-008	0.0102051
-2.95661e-008	0.0100098
-2.95411e-008	0.027124
-2.95161e-008	0.0225342
-2.94911e-008	0.023999
-2.94661e-008	0.0223389
-2.94411e-008	0.0139649
-2.94161e-008	0.0250488
-2.93911e-008	0.0121338
-2.93661e-008	0.000244148
-2.93411e-008	0.0222656
-2.93161e-008	0.0317139
-2.92911e-008	0.034668
-2.92661e-008	0.038916
-2.92411e-008	0.0297608
-2.92161e-008	0.0228516
-2.91911e-008	0.0109375
-2.91661e-008	0.00312501
-2.91411e-008	0.0187256
-2.91161e-008	0.0190918
-2.90911e-008	0.0169922
-2.90661e-008	0.0281006
-2.90411e-008	0.018335
-2.90161e-008	0.0187256
-2.89911e-008	0.0269775
-2.89661e-008	0.0212402
-2.89411e-008	0.0291992
-2.89161e-008	0.0335205
-2.88911e-008	0.0295166
-2.88661e-008	0.0300781
-2.88411e-008	0.0292236
-2.88161e-008	0.0350342
-2.87911e-008	0.0287598
-2.87661e-008	0.0157715
-2.87411e-008	0.03396
-2.87161e-008	0.0444824
-2.86911e-008	0.0214356
-2.86661e-008	0.0193359
-2.86411e-008	0.0348145
-2.86161e-008	0.0277344
-2.85911e-008	0.0156006
-2.85661e-008	0.0138428
-2.85411e-008	0.0215332
-2.85161e-008	0.0282959
-2.84911e-008	0.0123779
-2.84661e-008	0.00239259
-2.84411e-008	0.0172607
-2.84161e-008	0.0270264
-2.83911e-008	0.0307617
-2.83661e-008	0.0235107
-2.83411e-008	0.0168945
-2.83161e-008	0.0301758
-2.82911e-008	0.027124
-2.82661e-008	0.0190674
-2.82411e-008	0.0273438
-2.82161e-008	0.0258057
-2.81911e-008	0.0187988
-2.81661e-008	0.018457
-2.81411e-008	0.0206299
-2.81161e-008	0.0218506
-2.80911e-008	0.021582
-2.80661e-008	0.0141602
-2.80411e-008	0.0175781
-2.80161e-008	0.0287109
-2.79911e-008	0.0150147
-2.79661e-008	0.0171143
-2.79411e-008	0.0271973
-2.79161e-008	0.0155518
-2.78911e-008	0.0216065
-2.78661e-008	0.0218994
-2.78411e-008	0.0151611
-2.78161e-008	0.0211426
-2.77911e-008	0.00903321
-2.77661e-008	0.00197755
-2.77411e-008	0.0185791
-2.77161e-008	0.0290283
-2.76911e-008	0.0288086
-2.76661e-008	0.0252441
-2.76411e-008	0.0190918
-2.76161e-008	0.0178223
-2.75911e-008	0.0157959
-2.75661e-008	0.0121582
-2.75411e-008	0.0162354
-2.75161e-008	0.0222168
-2.74911e-008	0.0232178
-2.74661e-008	0.0142822
-2.74411e-008	0.0196045
-2.74161e-008	0.0316406
-2.73911e-008	0.0124756
-2.73661e-008	0.0118408
-2.73411e-008	0.0305908
-2.73161e-008	0.0234375
-2.72911e-008	0.021582
-2.72661e-008	0.0216309
-2.72411e-008	0.0149902
-2.72161e-008	0.0164307
-2.71911e-008	0.0248291
-2.71661e-008	0.0373047
-2.71411e-008	0.0340088
-2.71161e-008	0.0292236
-2.70911e-008	0.0284424
-2.70661e-008	0.023291
-2.70411e-008	0.0305664
-2.70161e-008	0.0295899
-2.69911e-008	0.0190186
-2.69661e-008	0.0188965
-2.69411e-008	0.0221924
-2.69161e-008	0.0250244
-2.68911e-008	0.028833
-2.68661e-008	0.0311524
-2.68411e-008	0.0254395
-2.68161e-008	0.0268066
-2.67911e-008	0.0340332
-2.67661e-008	0.0287354
-2.67411e-008	0.021875
-2.67161e-008	0.0160645
-2.66911e-008	0.0132324
-2.66661e-008	0.0198486
-2.66411e-008	0.0222412
-2.66161e-008	0.0167725
-2.65911e-008	0.019165
-2.65661e-008	0.0267334
-2.65411e-008	0.0300781
-2.65161e-008	0.0317627
-2.64911e-008	0.0307861
-2.64661e-008	0.0334717
-2.64411e-008	0.0315674
-2.64161e-008	0.0261719
-2.63911e-008	0.0391846
-2.63661e-008	0.0459473
-2.63411e-008	0.0278076
-2.63161e-008	0.0140625
-2.62911e-008	0.0164551
-2.62661e-008	0.0155029
-2.62411e-008	0.0178955
-2.62161e-008	0.0241943
-2.61911e-008	0.0117432
-2.61661e-008	0.0039795
-2.61411e-008	0.0189453
-2.61161e-008	0.0333008
-2.60911e-008	0.0233399
-2.60661e-008	0.0131836
-2.60411e-008	0.0312256
-2.60161e-008	0.0293945
-2.59911e-008	0.0067627
-2.59661e-008	0.00837403
-2.59411e-008	0.0202637
-2.59161e-008	0.023877
-2.58911e-008	0.0154297
-2.58661e-008	0.0116943
-2.58411e-008	0.0223389
-2.58161e-008	0.0173828
-2.57911e-008	0.00781251
-2.57661e-008	0.0179199
-2.57411e-008	0.0167969
-2.57161e-008	0.00781251
-2.56911e-008	0.0146973
-2.56661e-008	0.0116211
-2.56411e-008	0.0100586
-2.56161e-008	0.0246094
-2.55911e-008	0.0225098
-2.55661e-008	0.0166504
-2.55411e-008	0.0283203
-2.55161e-008	0.0283936
-2.54911e-008	0.0149902
-2.54661e-008	0.0152344
-2.54411e-008	0.0266113
-2.54161e-008	0.033374
-2.53911e-008	0.0215088
-2.53661e-008	0.00830079
-2.53411e-008	0.0177979
-2.53161e-008	0.0261475
-2.52911e-008	0.0298096
-2.52661e-008	0.0376953
-2.52411e-008	0.036792
-2.52161e-008	0.0283691
-2.51911e-008	0.0178711
-2.51661e-008	0.0153076
-2.51411e-008	0.0205566
-2.51161e-008	0.0210938
-2.50911e-008	0.0200684
-2.50661e-008	0.0233887
-2.50411e-008	0.0308594
-2.50161e-008	0.0290772
-2.49911e-008	0.0137451
-2.49661e-008	0.0171631
-2.49411e-008	0.0320557
-2.49161e-008	0.0269287
-2.48911e-008	0.0291504
-2.48661e-008	0.0331299
-2.48411e-008	0.0196777
-2.48161e-008	0.024292
-2.47911e-008	0.0230713
-2.47661e-008	0.000830086
-2.47411e-008	0.00493165
-2.47161e-008	0.0196533
-2.46911e-008	0.0277588
-2.46661e-008	0.0374756
-2.46411e-008	0.029126
-2.46161e-008	0.0226563
-2.45911e-008	0.0333984
-2.45661e-008	0.032666
-2.45411e-008	0.023169
-2.45161e-008	0.0208252
-2.44911e-008	0.0200684
-2.44661e-008	0.0144775
-2.44411e-008	0.0178711
-2.44161e-008	0.0312744
-2.43911e-008	0.0235352
-2.43661e-008	0.0128174
-2.43411e-008	0.0213623
-2.43161e-008	0.0190186
-2.42911e-008	0.0170654
-2.42661e-008	0.0273193
-2.42411e-008	0.031543
-2.42161e-008	0.0287598
-2.41911e-008	0.0193115
-2.41661e-008	0.0158447
-2.41411e-008	0.0174072
-2.41161e-008	0.0200684
-2.40911e-008	0.0236572
-2.40661e-008	0.0171631
-2.40411e-008	0.0204834
-2.40161e-008	0.0206299
-2.39911e-008	0.00771485
-2.39661e-008	0.0210449
-2.39411e-008	0.0284912
-2.39161e-008	0.0132324
-2.38911e-008	0.0147461
-2.38661e-008	0.0179443
-2.38411e-008	0.02771
-2.38161e-008	0.0379395
-2.37911e-008	0.0192627
-2.37661e-008	0.0162598
-2.37411e-008	0.0254883
-2.37161e-008	0.013916
-2.36911e-008	0.0123291
-2.36661e-008	0.018457
-2.36411e-008	0.0131836
-2.36161e-008	0.010791
-2.35911e-008	0.0175537
-2.35661e-008	0.0241455
-2.35411e-008	0.0235352
-2.35161e-008	0.0191895
-2.34911e-008	0.0250488
-2.34661e-008	0.0300537
-2.34411e-008	0.0233643
-2.34161e-008	0.0226074
-2.33911e-008	0.0188232
-2.33661e-008	0.0171875
-2.33411e-008	0.0259033
-2.33161e-008	0.0276123
-2.32911e-008	0.0313233
-2.32661e-008	0.0198975
-2.32411e-008	0.0148682
-2.32161e-008	0.0409912
-2.31911e-008	0.0294678
-2.31661e-008	0.00661622
-2.31411e-008	0.017041
-2.31161e-008	0.0126709
-2.30911e-008	0.0123779
-2.30661e-008	0.0240723
-2.30411e-008	0.0218018
-2.30161e-008	0.0248535
-2.29911e-008	0.0239014
-2.29661e-008	0.0198486
-2.29411e-008	0.0273438
-2.29161e-008	0.0289063
-2.28911e-008	0.0241943
-2.28661e-008	0.0176025
-2.28411e-008	0.0138916
-2.28161e-008	0.0239502
-2.27911e-008	0.0306397
-2.27661e-008	0.0202149
-2.27411e-008	0.0175293
-2.27161e-008	0.0301025
-2.26911e-008	0.0279053
-2.26661e-008	0.0208984
-2.26411e-008	0.0302246
-2.26161e-008	0.0300781
-2.25911e-008	0.0189453
-2.25661e-008	0.0134277
-2.25411e-008	0.0246582
-2.25161e-008	0.0424316
-2.24911e-008	0.0287354
-2.24661e-008	0.0126221
-2.24411e-008	0.0175049
-2.24161e-008	0.0208008
-2.23911e-008	0.0126465
-2.23661e-008	-0.00456542
-2.23411e-008	0.0104248
-2.23161e-008	0.0383789
-2.22911e-008	0.0351318
-2.22661e-008	0.018457
-2.22411e-008	0.00937501
-2.22161e-008	0.0243897
-2.21911e-008	0.028833
-2.21661e-008	0.00944825
-2.21411e-008	0.0133789
-2.21161e-008	0.0258545
-2.20911e-008	0.0187988
-2.20661e-008	0.0152832
-2.20411e-008	0.0258789
-2.20161e-008	0.0359131
-2.19911e-008	0.03396
-2.19661e-008	0.0199707
-2.19411e-008	0.0148438
-2.19161e-008	0.016626
-2.18911e-008	0.0183838
-2.18661e-008	0.0271484
-2.18411e-008	0.0290527
-2.18161e-008	0.0218994
-2.17911e-008	0.00852052
-2.17661e-008	0.0158447
-2.17411e-008	0.0354004
-2.17161e-008	0.0243652
-2.16911e-008	0.0237305
-2.16661e-008	0.0289307
-2.16411e-008	0.0194336
-2.16161e-008	0.0266602
-2.15911e-008	0.0177979
-2.15661e-008	0.00983887
-2.15411e-008	0.0335205
-2.15161e-008	0.0365967
-2.14911e-008	0.0220947
-2.14661e-008	0.0162598
-2.14411e-008	0.0204102
-2.14161e-008	0.0359863
-2.13911e-008	0.0345947
-2.13661e-008	0.014917
-2.13411e-008	0.0148926
-2.13161e-008	0.0296631
-2.12911e-008	0.0259033
-2.12661e-008	0.0163574
-2.12411e-008	0.0168701
-2.12161e-008	0.0157227
-2.11911e-008	0.0176758
-2.11661e-008	0.0150879
-2.11411e-008	0.0176025
-2.11161e-008	0.0320557
-2.10911e-008	0.0245117
-2.10661e-008	0.0219482
-2.10411e-008	0.0385498
-2.10161e-008	0.0311035
-2.09911e-008	0.0151367
-2.09661e-008	0.0187988
-2.09411e-008	0.0263672
-2.09161e-008	0.0200928
-2.08911e-008	0.0113525
-2.08661e-008	0.0103516
-2.08411e-008	0.0187012
-2.08161e-008	0.0288086
-2.07911e-008	0.0141846
-2.07661e-008	0.00715333
-2.07411e-008	0.0222656
-2.07161e-008	0.023877
-2.06911e-008	0.0239014
-2.06661e-008	0.0171631
-2.06411e-008	0.0167481
-2.06161e-008	0.0288086
-2.05911e-008	0.0224121
-2.05661e-008	0.023877
-2.05411e-008	0.0262207
-2.05161e-008	0.0206543
-2.04911e-008	0.0166992
-2.04661e-008	0.00651856
-2.04411e-008	0.0193359
-2.04161e-008	0.0246582
-2.03911e-008	0.00524903
-2.03661e-008	0.00720216
-2.03411e-008	0.0202637
-2.03161e-008	0.0282471
-2.02911e-008	0.0276611
-2.02661e-008	0.0191406
-2.02411e-008	0.0170899
-2.02161e-008	0.0224121
-2.01911e-008	0.0216797
-2.01661e-008	0.0148193
-2.01411e-008	0.0214111
-2.01161e-008	0.017334
-2.00911e-008	0.00429688
-2.00661e-008	0.0239502
-2.00411e-008	0.0327637
-2.00161e-008	0.0170654
-1.99911e-008	0.021875
-1.99661e-008	0.0283447
-1.99411e-008	0.0265625
-1.99161e-008	0.0299561
-1.98911e-008	0.0204834
-1.98661e-008	0.0123047
-1.98411e-008	0.032666
-1.98161e-008	0.0379639
-1.97911e-008	0.0158691
-1.97661e-008	0.016919
-1.97411e-008	0.0155274
-1.97161e-008	0.00388184
-1.96911e-008	0.0201904
-1.96661e-008	0.0194092
-1.96411e-008	0.00734864
-1.96161e-008	0.0214356
-1.95911e-008	0.0254395
-1.95661e-008	0.0228272
-1.95411e-008	0.0219238
-1.95161e-008	0.0178223
-1.94911e-008	0.0191162
-1.94661e-008	0.0172119
-1.94411e-008	0.0222412
-1.94161e-008	0.0251953
-1.93911e-008	0.0145996
-1.93661e-008	0.0171143
-1.93411e-008	0.0243408
-1.93161e-008	0.0195068
-1.92911e-008	0.0177979
-1.92661e-008	0.0179199
-1.92411e-008	0.0201416
-1.92161e-008	0.0288818
-1.91911e-008	0.0213867
-1.91661e-008	0.00976563
-1.91411e-008	0.0197266
-1.91161e-008	0.0248291
-1.90911e-008	0.0209473
-1.90661e-008	0.0260742
-1.90411e-008	0.0325928
-1.90161e-008	0.0298828
-1.89911e-008	0.0138916
-1.89661e-008	0.00598145
-1.89411e-008	0.0188965
-1.89161e-008	0.0305908
-1.88911e-008	0.0285156