# LECROYWM813Zi	51496	Waveform
# Segments	1	SegmentSize	4002
# Segment	TrigTime	TimeSinceSegment1
# #1	30-Nov-2018 17:24:49	0                 
# Time	Ampl
-5.000648e-008	0.0190674
-4.998148e-008	0.0179688
-4.995648e-008	0.0223145
-4.993148e-008	0.0241943
-4.990648e-008	0.0183838
-4.988148e-008	0.0250244
-4.985648e-008	0.0336914
-4.983148e-008	0.022583
-4.980648e-008	0.0227051
-4.978148e-008	0.0342529
-4.975648e-008	0.0304443
-4.973148e-008	0.0220215
-4.970648e-008	0.0166748
-4.968148e-008	0.0223389
-4.965648e-008	0.0238281
-4.963148e-008	0.0140625
-4.960648e-008	0.0267578
-4.958148e-008	0.0354736
-4.955648e-008	0.0231201
-4.953148e-008	0.0229736
-4.950648e-008	0.0192383
-4.948148e-008	0.0100098
-4.945648e-008	0.0225342
-4.943148e-008	0.0299561
-4.940648e-008	0.0211426
-4.938148e-008	0.0219727
-4.935648e-008	0.0205078
-4.933148e-008	0.0148193
-4.930648e-008	0.0176514
-4.928148e-008	0.0243164
-4.925648e-008	0.027832
-4.923148e-008	0.0275147
-4.920648e-008	0.0242676
-4.918148e-008	0.0109131
-4.915648e-008	0.013794
-4.913148e-008	0.0258301
-4.910648e-008	0.0178467
-4.908148e-008	0.0191895
-4.905648e-008	0.0223633
-4.903148e-008	0.0273193
-4.900648e-008	0.0354981
-4.898148e-008	0.022168
-4.895648e-008	0.0206543
-4.893148e-008	0.0294922
-4.890648e-008	0.0225342
-4.888148e-008	0.0115479
-4.885648e-008	0.0227051
-4.883148e-008	0.0496826
-4.880648e-008	0.0387451
-4.878148e-008	0.0194092
-4.875648e-008	0.0224854
-4.873148e-008	0.0186524
-4.870648e-008	0.0210693
-4.868148e-008	0.0215088
-4.865648e-008	0.00979005
-4.863148e-008	0.0083252
-4.860648e-008	0.0180664
-4.858148e-008	0.0207031
-4.855648e-008	0.0219727
-4.853148e-008	0.0325928
-4.850648e-008	0.025293
-4.848148e-008	0.0227539
-4.845648e-008	0.0340332
-4.843148e-008	0.023584
-4.840648e-008	0.0239502
-4.838148e-008	0.0204834
-4.835648e-008	0.00681153
-4.833148e-008	0.0196289
-4.830648e-008	0.0126709
-4.828148e-008	0.0088379
-4.825648e-008	0.0291016
-4.823148e-008	0.023999
-4.820648e-008	0.0206787
-4.818148e-008	0.0203369
-4.815648e-008	0.0168701
-4.813148e-008	0.0218018
-4.810648e-008	0.029126
-4.808148e-008	0.0437988
-4.805648e-008	0.0237061
-4.803148e-008	0.00949708
-4.800648e-008	0.0335693
-4.798148e-008	0.0140625
-4.795648e-008	-0.00117187
-4.793148e-008	0.0218506
-4.790648e-008	0.0250488
-4.788148e-008	0.0236084
-4.785648e-008	0.0280274
-4.783148e-008	0.0353516
-4.780648e-008	0.0320557
-4.778148e-008	0.0188721
-4.775648e-008	0.0206055
-4.773148e-008	0.0162109
-4.770648e-008	0.0163574
-4.768148e-008	0.0306397
-4.765648e-008	0.0267578
-4.763148e-008	0.023999
-4.760648e-008	0.0311279
-4.758148e-008	0.0213623
-4.755648e-008	0.0205566
-4.753148e-008	0.0333008
-4.750648e-008	0.0235596
-4.748148e-008	0.0208252
-4.745648e-008	0.0281983
-4.743148e-008	0.0209229
-4.740648e-008	0.0204102
-4.738148e-008	0.0171387
-4.735648e-008	0.015918
-4.733148e-008	0.0228516
-4.730648e-008	0.0197266
-4.728148e-008	0.0144043
-4.725648e-008	-0.000341789
-4.723148e-008	0.00546876
-4.720648e-008	0.0297363
-4.718148e-008	0.01875
-4.715648e-008	0.0147949
-4.713148e-008	0.0262695
-4.710648e-008	0.0210693
-4.708148e-008	0.0219238
-4.705648e-008	0.0313233
-4.703148e-008	0.0424561
-4.700648e-008	0.0338867
-4.698148e-008	0.00961915
-4.695648e-008	0.011084
-4.693148e-008	0.0245117
-4.690648e-008	0.023169
-4.688148e-008	0.0198486
-4.685648e-008	0.0284912
-4.683148e-008	0.0322998
-4.680648e-008	0.0231934
-4.678148e-008	0.0172852
-4.675648e-008	0.0194092
-4.673148e-008	0.0270996
-4.670648e-008	0.0209229
-4.668148e-008	0.0076172
-4.665648e-008	0.0174805
-4.663148e-008	0.0193848
-4.660648e-008	0.0134766
-4.658148e-008	0.027417
-4.655648e-008	0.0324707
-4.653148e-008	0.0275635
-4.650648e-008	0.012915
-4.648148e-008	0.00891114
-4.645648e-008	0.0357178
-4.643148e-008	0.0340576
-4.640648e-008	0.0123291
-4.638148e-008	0.00961915
-4.635648e-008	0.0189453
-4.633148e-008	0.0280762
-4.630648e-008	0.0231445
-4.628148e-008	0.029126
-4.625648e-008	0.0338623
-4.623148e-008	0.0203857
-4.620648e-008	0.0217774
-4.618148e-008	0.0265625
-4.615648e-008	0.019165
-4.613148e-008	0.0182617
-4.610648e-008	0.0261963
-4.608148e-008	0.0262695
-4.605648e-008	0.0209961
-4.603148e-008	0.0218506
-4.600648e-008	0.0230957
-4.598148e-008	0.0195557
-4.595648e-008	0.0191162
-4.593148e-008	0.029541
-4.590648e-008	0.0246094
-4.588148e-008	0.0209473
-4.585648e-008	0.0387451
-4.583148e-008	0.0297119
-4.580648e-008	0.0282227
-4.578148e-008	0.0390625
-4.575648e-008	0.0171387
-4.573148e-008	0.0184326
-4.570648e-008	0.0328369
-4.568148e-008	0.0290772
-4.565648e-008	0.0239746
-4.563148e-008	0.0108399
-4.560648e-008	0.0115479
-4.558148e-008	0.0214844
-4.555648e-008	0.0231445
-4.553148e-008	0.0199707
-4.550648e-008	0.0140381
-4.548148e-008	0.019458
-4.545648e-008	0.0228516
-4.543148e-008	0.0237793
-4.540648e-008	0.0258545
-4.538148e-008	0.00661622
-4.535648e-008	0.00153809
-4.533148e-008	0.0223877
-4.530648e-008	0.0218506
-4.528148e-008	0.0160645
-4.525648e-008	0.019751
-4.523148e-008	0.0203369
-4.520648e-008	0.0243897
-4.518148e-008	0.0227295
-4.515648e-008	0.0208496
-4.513148e-008	0.0265869
-4.510648e-008	0.0233643
-4.508148e-008	0.0201172
-4.505648e-008	0.0301514
-4.503148e-008	0.0298584
-4.500648e-008	0.0193359
-4.498148e-008	0.025293
-4.495648e-008	0.0330322
-4.493148e-008	0.0287109
-4.490648e-008	0.0192627
-4.488148e-008	0.011377
-4.485648e-008	0.0138672
-4.483148e-008	0.0206055
-4.480648e-008	0.0228272
-4.478148e-008	0.0213379
-4.475648e-008	0.0191895
-4.473148e-008	0.0205322
-4.470648e-008	0.0265625
-4.468148e-008	0.0260498
-4.465648e-008	0.0198242
-4.463148e-008	0.0237061
-4.460648e-008	0.0345703
-4.458148e-008	0.0340332
-4.455648e-008	0.0222656
-4.453148e-008	0.0258545
-4.450648e-008	0.0323486
-4.448148e-008	0.0284668
-4.445648e-008	0.0310791
-4.443148e-008	0.026001
-4.440648e-008	0.0217285
-4.438148e-008	0.0275635
-4.435648e-008	0.0239746
-4.433148e-008	0.0158203
-4.430648e-008	0.0129395
-4.428148e-008	0.0218018
-4.425648e-008	0.0315918
-4.423148e-008	0.0288086
-4.420648e-008	0.0182617
-4.418148e-008	0.0116455
-4.415648e-008	0.0188721
-4.413148e-008	0.0269775
-4.410648e-008	0.0355957
-4.408148e-008	0.0323242
-4.405648e-008	0.0109131
-4.403148e-008	0.0143311
-4.400648e-008	0.0300537
-4.398148e-008	0.0385742
-4.395648e-008	0.0461426
-4.393148e-008	0.0342774
-4.390648e-008	0.0186524
-4.388148e-008	0.0156006
-4.385648e-008	0.0193604
-4.383148e-008	0.0136963
-4.380648e-008	0.00979005
-4.378148e-008	0.0284912
-4.375648e-008	0.0304688
-4.373148e-008	0.0203125
-4.370648e-008	0.0199707
-4.368148e-008	0.0143311
-4.365648e-008	0.0193604
-4.363148e-008	0.032544
-4.360648e-008	0.0308838
-4.358148e-008	0.0181152
-4.355648e-008	0.0136963
-4.353148e-008	0.0235596
-4.350648e-008	0.0317383
-4.348148e-008	0.0279297
-4.345648e-008	0.0246582
-4.343148e-008	0.0297363
-4.340648e-008	0.0273193
-4.338148e-008	0.0228272
-4.335648e-008	0.023584
-4.333148e-008	0.0234863
-4.330648e-008	0.0250244
-4.328148e-008	0.0256348
-4.325648e-008	0.0256592
-4.323148e-008	0.0230469
-4.320648e-008	0.0166992
-4.318148e-008	0.0105713
-4.315648e-008	0.0102783
-4.313148e-008	0.0193359
-4.310648e-008	0.0306152
-4.308148e-008	0.0304199
-4.305648e-008	0.0172119
-4.303148e-008	0.0217774
-4.300648e-008	0.0345459
-4.298148e-008	0.0234131
-4.295648e-008	0.0189209
-4.293148e-008	0.0337647
-4.290648e-008	0.0322754
-4.288148e-008	0.0235107
-4.285648e-008	0.0328858
-4.283148e-008	0.0320801
-4.280648e-008	0.0267578
-4.278148e-008	0.0298096
-4.275648e-008	0.017334
-4.273148e-008	0.0193848
-4.270648e-008	0.0270508
-4.268148e-008	0.0195313
-4.265648e-008	0.0294434
-4.263148e-008	0.0203857
-4.260648e-008	0.00483399
-4.258148e-008	0.0327149
-4.255648e-008	0.0362793
-4.253148e-008	0.0147705
-4.250648e-008	0.0177734
-4.248148e-008	0.0135254
-4.245648e-008	0.00776368
-4.243148e-008	0.0179199
-4.240648e-008	0.0258545
-4.238148e-008	0.0194336
-4.235648e-008	0.0182129
-4.233148e-008	0.0253174
-4.230648e-008	0.0172119
-4.228148e-008	0.0272461
-4.225648e-008	0.0343994
-4.223148e-008	0.0154785
-4.220648e-008	0.0198975
-4.218148e-008	0.023169
-4.215648e-008	0.0185059
-4.213148e-008	0.0261719
-4.210648e-008	0.0262451
-4.208148e-008	0.0286865
-4.205648e-008	0.0327149
-4.203148e-008	0.0241699
-4.200648e-008	0.0156494
-4.198148e-008	0.0189697
-4.195648e-008	0.0248047
-4.193148e-008	0.025708
-4.190648e-008	0.0299072
-4.188148e-008	0.028125
-4.185648e-008	0.0194336
-4.183148e-008	0.0229981
-4.180648e-008	0.0313477
-4.178148e-008	0.0341797
-4.175648e-008	0.0285156
-4.173148e-008	0.0148926
-4.170648e-008	0.011792
-4.168148e-008	0.0261963
-4.165648e-008	0.03396
-4.163148e-008	0.0200195
-4.160648e-008	0.0119629
-4.158148e-008	0.0182617
-4.155648e-008	0.0271729
-4.153148e-008	0.0335938
-4.150648e-008	0.0282715
-4.148148e-008	0.0292481
-4.145648e-008	0.021875
-4.143148e-008	0.00444337
-4.140648e-008	0.0139893
-4.138148e-008	0.0236084
-4.135648e-008	0.0215576
-4.133148e-008	0.0217774
-4.130648e-008	0.0202149
-4.128148e-008	0.0253906
-4.125648e-008	0.024707
-4.123148e-008	0.0182617
-4.120648e-008	0.0209717
-4.118148e-008	0.0202393
-4.115648e-008	0.0224365
-4.113148e-008	0.0286865
-4.110648e-008	0.0221191
-4.108148e-008	0.0238525
-4.105648e-008	0.0277832
-4.103148e-008	0.0207031
-4.100648e-008	0.0286133
-4.098148e-008	0.0272705
-4.095648e-008	0.0206299
-4.093148e-008	0.031543
-4.090648e-008	0.0194336
-4.088148e-008	0.0165527
-4.085648e-008	0.0417236
-4.083148e-008	0.0352051
-4.080648e-008	0.0153076
-4.078148e-008	0.0196533
-4.075648e-008	0.0253418
-4.073148e-008	0.0165527
-4.070648e-008	0.021875
-4.068148e-008	0.0289307
-4.065648e-008	0.0181152
-4.063148e-008	0.0318359
-4.060648e-008	0.0348877
-4.058148e-008	0.0139649
-4.055648e-008	0.0141357
-4.053148e-008	0.00661622
-4.050648e-008	0.0163086
-4.048148e-008	0.0409912
-4.045648e-008	0.0250977
-4.043148e-008	0.0128174
-4.040648e-008	0.0245361
-4.038148e-008	0.0268066
-4.035648e-008	0.0239014
-4.033148e-008	0.0285645
-4.030648e-008	0.0176758
-4.028148e-008	0.00209962
-4.025648e-008	0.0164307
-4.023148e-008	0.0272217
-4.020648e-008	0.0329834
-4.018148e-008	0.0365723
-4.015648e-008	0.0214844
-4.013148e-008	0.0275147
-4.010648e-008	0.0320557
-4.008148e-008	0.0163086
-4.005648e-008	0.0233887
-4.003148e-008	0.0283691
-4.000648e-008	0.0169434
-3.998148e-008	0.0119873
-3.995648e-008	0.0121826
-3.993148e-008	0.022168
-3.990648e-008	0.0234131
-3.988148e-008	0.0262451
-3.985648e-008	0.0420166
-3.983148e-008	0.0309082
-3.980648e-008	0.022583
-3.978148e-008	0.0205322
-3.975648e-008	0.00974122
-3.973148e-008	0.0192139
-3.970648e-008	0.0222168
-3.968148e-008	0.027832
-3.965648e-008	0.0272217
-3.963148e-008	0.00930177
-3.960648e-008	0.0206787
-3.958148e-008	0.0178223
-3.955648e-008	0.00356446
-3.953148e-008	0.020752
-3.950648e-008	0.0226074
-3.948148e-008	0.0121582
-3.945648e-008	0.00852052
-3.943148e-008	0.0134033
-3.940648e-008	0.0362549
-3.938148e-008	0.0316406
-3.935648e-008	0.011084
-3.933148e-008	0.0197754
-3.930648e-008	0.0278809
-3.928148e-008	0.0278565
-3.925648e-008	0.0212647
-3.923148e-008	0.019165
-3.920648e-008	0.0268066
-3.918148e-008	0.0135986
-3.915648e-008	0.0207031
-3.913148e-008	0.0402344
-3.910648e-008	0.0269043
-3.908148e-008	0.0274902
-3.905648e-008	0.0298828
-3.903148e-008	0.0225586
-3.900648e-008	0.0311768
-3.898148e-008	0.0229981
-3.895648e-008	0.0152832
-3.893148e-008	0.0252197
-3.890648e-008	0.0199951
-3.888148e-008	0.0212158
-3.885648e-008	0.0385986
-3.883148e-008	0.0377686
-3.880648e-008	0.0296875
-3.878148e-008	0.0286133
-3.875648e-008	0.0190918
-3.873148e-008	0.0134766
-3.870648e-008	0.0156006
-3.868148e-008	0.0175537
-3.865648e-008	0.0276611
-3.863148e-008	0.0317627
-3.860648e-008	0.0261231
-3.858148e-008	0.0218506
-3.855648e-008	0.0206543
-3.853148e-008	0.0222412
-3.850648e-008	0.0182373
-3.848148e-008	0.0186279
-3.845648e-008	0.0222412
-3.843148e-008	0.0198242
-3.840648e-008	0.0212891
-3.838148e-008	0.023169
-3.835648e-008	0.0229981
-3.833148e-008	0.0189209
-3.830648e-008	0.015332
-3.828148e-008	0.0213135
-3.825648e-008	0.0248291
-3.823148e-008	0.0262207
-3.820648e-008	0.0322266
-3.818148e-008	0.023291
-3.815648e-008	0.0115723
-3.813148e-008	0.0270508
-3.810648e-008	0.0364258
-3.808148e-008	0.0268799
-3.805648e-008	0.0182617
-3.803148e-008	0.0149658
-3.800648e-008	0.0214844
-3.798148e-008	0.00903321
-3.795648e-008	0.00288087
-3.793148e-008	0.0231445
-3.790648e-008	0.0159668
-3.788148e-008	0.00949708
-3.785648e-008	0.0203369
-3.783148e-008	0.0187012
-3.780648e-008	0.0191162
-3.778148e-008	0.0155762
-3.775648e-008	0.0158447
-3.773148e-008	0.0244385
-3.770648e-008	0.01604
-3.768148e-008	0.0145508
-3.765648e-008	0.0275635
-3.763148e-008	0.0293945
-3.760648e-008	0.0250488
-3.758148e-008	0.0143799
-3.755648e-008	0.0132324
-3.753148e-008	0.0233154
-3.750648e-008	0.0151367
-3.748148e-008	0.0177734
-3.745648e-008	0.0281738
-3.743148e-008	0.0256104
-3.740648e-008	0.0323731
-3.738148e-008	0.0206787
-3.735648e-008	0.0125244
-3.733148e-008	0.0276856
-3.730648e-008	0.0232666
-3.728148e-008	0.0272461
-3.725648e-008	0.0309326
-3.723148e-008	0.024292
-3.720648e-008	0.0266113
-3.718148e-008	0.00476075
-3.715648e-008	-0.00253906
-3.713148e-008	0.0159912
-3.710648e-008	0.0199951
-3.708148e-008	0.0305908
-3.705648e-008	0.0299805
-3.703148e-008	0.0232666
-3.700648e-008	0.0358399
-3.698148e-008	0.0305176
-3.695648e-008	0.0238281
-3.693148e-008	0.0287598
-3.690648e-008	0.0207764
-3.688148e-008	0.0229004
-3.685648e-008	0.024292
-3.683148e-008	0.0142578
-3.680648e-008	0.0191406
-3.678148e-008	0.022583
-3.675648e-008	0.0213135
-3.673148e-008	0.023169
-3.670648e-008	0.0181641
-3.668148e-008	0.0158203
-3.665648e-008	0.0178955
-3.663148e-008	0.0177246
-3.660648e-008	0.0169434
-3.658148e-008	0.0218262
-3.655648e-008	0.0297363
-3.653148e-008	0.0249756
-3.650648e-008	0.0171631
-3.648148e-008	0.0219971
-3.645648e-008	0.0207764
-3.643148e-008	0.00878907
-3.640648e-008	0.00937501
-3.638148e-008	0.0212647
-3.635648e-008	0.0283691
-3.633148e-008	0.0250977
-3.630648e-008	0.0186279
-3.628148e-008	0.0195068
-3.625648e-008	0.0220459
-3.623148e-008	0.0320557
-3.620648e-008	0.033667
-3.618148e-008	0.0109863
-3.615648e-008	0.0119141
-3.613148e-008	0.0287354
-3.610648e-008	0.0240723
-3.608148e-008	0.0180908
-3.605648e-008	0.015918
-3.603148e-008	0.0223389
-3.600648e-008	0.0324219
-3.598148e-008	0.0294922
-3.595648e-008	0.0278809
-3.593148e-008	0.0254639
-3.590648e-008	0.0223145
-3.588148e-008	0.0369385
-3.585648e-008	0.0428711
-3.583148e-008	0.0288818
-3.580648e-008	0.0345215
-3.578148e-008	0.0392578
-3.575648e-008	0.0254639
-3.573148e-008	0.0286865
-3.570648e-008	0.0254639
-3.568148e-008	0.00803223
-3.565648e-008	0.00737305
-3.563148e-008	0.0183106
-3.560648e-008	0.0258301
-3.558148e-008	0.0164551
-3.555648e-008	0.0142822
-3.553148e-008	0.0273926
-3.550648e-008	0.0239746
-3.548148e-008	0.0177002
-3.545648e-008	0.022168
-3.543148e-008	0.0255127
-3.540648e-008	0.023999
-3.538148e-008	0.0203125
-3.535648e-008	0.0157959
-3.533148e-008	0.0179199
-3.530648e-008	0.02229
-3.528148e-008	0.0219482
-3.525648e-008	0.0304688
-3.523148e-008	0.0231934
-3.520648e-008	0.00825196
-3.518148e-008	0.0174561
-3.515648e-008	0.019165
-3.513148e-008	0.0160889
-3.510648e-008	0.0187744
-3.508148e-008	0.0199707
-3.505648e-008	0.0222412
-3.503148e-008	0.0253662
-3.500648e-008	0.0336914
-3.498148e-008	0.0264893
-3.495648e-008	0.0150391
-3.493148e-008	0.0218018
-3.490648e-008	0.0233154
-3.488148e-008	0.0181397
-3.485648e-008	0.0165527
-3.483148e-008	0.0163818
-3.480648e-008	0.0210938
-3.478148e-008	0.0206055
-3.475648e-008	0.0147217
-3.473148e-008	0.0208984
-3.470648e-008	0.0172607
-3.468148e-008	0.0124756
-3.465648e-008	0.0268799
-3.463148e-008	0.0294434
-3.460648e-008	0.0267822
-3.458148e-008	0.0197754
-3.455648e-008	0.0161133
-3.453148e-008	0.0290527
-3.450648e-008	0.02229
-3.448148e-008	0.0109131
-3.445648e-008	0.0151367
-3.443148e-008	0.0272705
-3.440648e-008	0.0352539
-3.438148e-008	0.0253906
-3.435648e-008	0.0175537
-3.433148e-008	0.0126465
-3.430648e-008	0.0124512
-3.428148e-008	0.023291
-3.425648e-008	0.0303467
-3.423148e-008	0.02771
-3.420648e-008	0.0247315
-3.418148e-008	0.0275391
-3.415648e-008	0.0196777
-3.413148e-008	0.0181885
-3.410648e-008	0.0291016
-3.408148e-008	0.0237793
-3.405648e-008	0.0159424
-3.403148e-008	0.0147217
-3.400648e-008	0.0219971
-3.398148e-008	0.0328858
-3.395648e-008	0.0305664
-3.393148e-008	0.0269043
-3.390648e-008	0.0210938
-3.388148e-008	0.0224121
-3.385648e-008	0.0362061
-3.383148e-008	0.0256836
-3.380648e-008	0.0162354
-3.378148e-008	0.0259522
-3.375648e-008	0.0217285
-3.373148e-008	0.0282715
-3.370648e-008	0.0288818
-3.368148e-008	0.0091797
-3.365648e-008	0.0161377
-3.363148e-008	0.0255859
-3.360648e-008	0.0316162
-3.358148e-008	0.0429932
-3.355648e-008	0.0298584
-3.353148e-008	0.0136475
-3.350648e-008	0.0140381
-3.348148e-008	0.0281983
-3.345648e-008	0.0279053
-3.343148e-008	0.0081543
-3.340648e-008	0.00793458
-3.338148e-008	0.0067627
-3.335648e-008	0.0138184
-3.333148e-008	0.0328369
-3.330648e-008	0.024292
-3.328148e-008	0.0203369
-3.325648e-008	0.0252197
-3.323148e-008	0.0185791
-3.320648e-008	0.0138672
-3.318148e-008	0.0204834
-3.315648e-008	0.0312744
-3.313148e-008	0.0198242
-3.310648e-008	0.00905762
-3.308148e-008	0.0223877
-3.305648e-008	0.0322266
-3.303148e-008	0.033374
-3.300648e-008	0.0267334
-3.298148e-008	0.0166748
-3.295648e-008	0.0196777
-3.293148e-008	0.0285889
-3.290648e-008	0.0219727
-3.288148e-008	0.0071045
-3.285648e-008	0.0150391
-3.283148e-008	0.0294922
-3.280648e-008	0.0202881
-3.278148e-008	0.010083
-3.275648e-008	0.0164307
-3.273148e-008	0.0226563
-3.270648e-008	0.0200928
-3.268148e-008	0.0171875
-3.265648e-008	0.0204834
-3.263148e-008	0.0344727
-3.260648e-008	0.0344238
-3.258148e-008	0.0121826
-3.255648e-008	0.0140625
-3.253148e-008	0.0270996
-3.250648e-008	0.0262451
-3.248148e-008	0.0280029
-3.245648e-008	0.0229492
-3.243148e-008	0.0229004
-3.240648e-008	0.024292
-3.238148e-008	0.016626
-3.235648e-008	0.0189697
-3.233148e-008	0.0208984
-3.230648e-008	0.0273193
-3.228148e-008	0.0304199
-3.225648e-008	0.0242676
-3.223148e-008	0.0307129
-3.220648e-008	0.0260742
-3.218148e-008	0.015625
-3.215648e-008	0.0183838
-3.213148e-008	0.0248291
-3.210648e-008	0.0210938
-3.208148e-008	0.00629884
-3.205648e-008	0.0165527
-3.203148e-008	0.0256104
-3.200648e-008	0.0150147
-3.198148e-008	0.0220459
-3.195648e-008	0.0285889
-3.193148e-008	0.0259766
-3.190648e-008	0.0236816
-3.188148e-008	0.0268799
-3.185648e-008	0.0249512
-3.183148e-008	0.0104004
-3.180648e-008	0.0214356
-3.178148e-008	0.0295654
-3.175648e-008	0.0178955
-3.173148e-008	0.0290283
-3.170648e-008	0.0314453
-3.168148e-008	0.0197022
-3.165648e-008	0.0175049
-3.163148e-008	0.0197022
-3.160648e-008	0.029126
-3.158148e-008	0.0255371
-3.155648e-008	0.023999
-3.153148e-008	0.0282959
-3.150648e-008	0.0222168
-3.148148e-008	0.033252
-3.145648e-008	0.0345215
-3.143148e-008	0.0267334
-3.140648e-008	0.0360352
-3.138148e-008	0.0262695
-3.135648e-008	0.0155518
-3.133148e-008	0.0206299
-3.130648e-008	0.0198486
-3.128148e-008	0.0189209
-3.125648e-008	0.0206055
-3.123148e-008	0.0249024
-3.120648e-008	0.0226563
-3.118148e-008	0.0209717
-3.115648e-008	0.0253174
-3.113148e-008	0.0139404
-3.110648e-008	0.0127197
-3.108148e-008	0.0241699
-3.105648e-008	0.0137695
-3.103148e-008	0.0129639
-3.100648e-008	0.0279297
-3.098148e-008	0.024292
-3.095648e-008	0.017749
-3.093148e-008	0.023291
-3.090648e-008	0.0208496
-3.088148e-008	0.0115723
-3.085648e-008	0.0160889
-3.083148e-008	0.0245361
-3.080648e-008	0.0188477
-3.078148e-008	0.010083
-3.075648e-008	0.016333
-3.073148e-008	0.0240479
-3.070648e-008	0.0227783
-3.068148e-008	0.023584
-3.065648e-008	0.0219971
-3.063148e-008	0.0285645
-3.060648e-008	0.035669
-3.058148e-008	0.0231934
-3.055648e-008	0.0193848
-3.053148e-008	0.0230225
-3.050648e-008	0.0172119
-3.048148e-008	0.0165527
-3.045648e-008	0.0176025
-3.043148e-008	0.0169434
-3.040648e-008	0.0186279
-3.038148e-008	0.00864259
-3.035648e-008	0.00585938
-3.033148e-008	0.0290527
-3.030648e-008	0.0336914
-3.028148e-008	0.0224609
-3.025648e-008	0.0245117
-3.023148e-008	0.0185059
-3.020648e-008	0.0158203
-3.018148e-008	0.0238281
-3.015648e-008	0.0194824
-3.013148e-008	0.0113281
-3.010648e-008	0.0102051
-3.008148e-008	0.0197022
-3.005648e-008	0.0279053
-3.003148e-008	0.0232422
-3.000648e-008	0.0292481
-2.998148e-008	0.0328125
-2.995648e-008	0.0187744
-2.993148e-008	0.0158936
-2.990648e-008	0.0227539
-2.988148e-008	0.0263672
-2.985648e-008	0.014502
-2.983148e-008	0.0147949
-2.980648e-008	0.0403076
-2.978148e-008	0.0296875
-2.975648e-008	0.0200195
-2.973148e-008	0.0355957
-2.970648e-008	0.0190918
-2.968148e-008	0.0154053
-2.965648e-008	0.0290772
-2.963148e-008	0.0212158
-2.960648e-008	0.0229736
-2.958148e-008	0.0215576
-2.955648e-008	0.0193359
-2.953148e-008	0.0352539
-2.950648e-008	0.0321289
-2.948148e-008	0.0209717
-2.945648e-008	0.016919
-2.943148e-008	0.0175537
-2.940648e-008	0.0314697
-2.938148e-008	0.0213379
-2.935648e-008	0.00505372
-2.933148e-008	0.0179443
-2.930648e-008	0.0274902
-2.928148e-008	0.025
-2.925648e-008	0.0106934
-2.923148e-008	0.0104492
-2.920648e-008	0.0342774
-2.918148e-008	0.0313477
-2.915648e-008	0.0211182
-2.913148e-008	0.0240479
-2.910648e-008	0.0169922
-2.908148e-008	0.0160889
-2.905648e-008	0.0143799
-2.903148e-008	0.0169922
-2.900648e-008	0.0351074
-2.898148e-008	0.0301758
-2.895648e-008	0.0197266
-2.893148e-008	0.0233154
-2.890648e-008	0.0182861
-2.888148e-008	0.0171143
-2.885648e-008	0.0147705
-2.883148e-008	0.0125244
-2.880648e-008	0.0277344
-2.878148e-008	0.0347168
-2.875648e-008	0.0306641
-2.873148e-008	0.0284912
-2.870648e-008	0.0182617
-2.868148e-008	0.0181152
-2.865648e-008	0.0278076
-2.863148e-008	0.0224609
-2.860648e-008	0.0224609
-2.858148e-008	0.0281494
-2.855648e-008	0.021167
-2.853148e-008	0.0195557
-2.850648e-008	0.0264893
-2.848148e-008	0.0269043
-2.845648e-008	0.020752
-2.843148e-008	0.0287842
-2.840648e-008	0.0344971
-2.838148e-008	0.014502
-2.835648e-008	0.0131348
-2.833148e-008	0.0194824
-2.830648e-008	0.0121094
-2.828148e-008	0.0273926
-2.825648e-008	0.0340088
-2.823148e-008	0.0274902
-2.820648e-008	0.0372803
-2.818148e-008	0.026709
-2.815648e-008	0.00886231
-2.813148e-008	0.017627
-2.810648e-008	0.0263916
-2.808148e-008	0.028125
-2.805648e-008	0.0292969
-2.803148e-008	0.0326416
-2.800648e-008	0.0397949
-2.798148e-008	0.0293945
-2.795648e-008	0.0186035
-2.793148e-008	0.0210938
-2.790648e-008	0.017749
-2.788148e-008	0.0262207
-2.785648e-008	0.0319336
-2.783148e-008	0.0221436
-2.780648e-008	0.0309326
-2.778148e-008	0.035083
-2.775648e-008	0.021875
-2.773148e-008	0.0224365
-2.770648e-008	0.0310303
-2.768148e-008	0.0308838
-2.765648e-008	0.013794
-2.763148e-008	0.0100342
-2.760648e-008	0.0286133
-2.758148e-008	0.0220215
-2.755648e-008	0.0210693
-2.753148e-008	0.0312988
-2.750648e-008	0.0121338
-2.748148e-008	0.0146729
-2.745648e-008	0.0267822
-2.743148e-008	0.0159424
-2.740648e-008	0.0194092
-2.738148e-008	0.0228027
-2.735648e-008	0.0250244
-2.733148e-008	0.0304443
-2.730648e-008	0.014917
-2.728148e-008	0.0116455
-2.725648e-008	0.0290772
-2.723148e-008	0.0325928
-2.720648e-008	0.0307617
-2.718148e-008	0.0273193
-2.715648e-008	0.0224121
-2.713148e-008	0.028833
-2.710648e-008	0.0275147
-2.708148e-008	0.0272217
-2.705648e-008	0.0378418
-2.703148e-008	0.0354248
-2.700648e-008	0.0339356
-2.698148e-008	0.026294
-2.695648e-008	0.00493165
-2.693148e-008	-0.00239257
-2.690648e-008	0.00639649
-2.688148e-008	0.0258301
-2.685648e-008	0.0297363
-2.683148e-008	0.0275391
-2.680648e-008	0.0336182
-2.678148e-008	0.0222168
-2.675648e-008	0.024292
-2.673148e-008	0.0280029
-2.670648e-008	0.0151856
-2.668148e-008	0.0251221
-2.665648e-008	0.0183594
-2.663148e-008	0.00681153
-2.660648e-008	0.0432861
-2.658148e-008	0.0510986
-2.655648e-008	0.0175781
-2.653148e-008	0.0133301
-2.650648e-008	0.0210205
-2.648148e-008	0.0236084
-2.645648e-008	0.0211426
-2.643148e-008	0.0158203
-2.640648e-008	0.0161377
-2.638148e-008	0.00759278
-2.635648e-008	0.0150391
-2.633148e-008	0.03125
-2.630648e-008	0.0240479
-2.628148e-008	0.0182129
-2.625648e-008	0.0166504
-2.623148e-008	0.0192871
-2.620648e-008	0.0311279
-2.618148e-008	0.0295899
-2.615648e-008	0.0211182
-2.613148e-008	0.0199951
-2.610648e-008	0.0203857
-2.608148e-008	0.0285889
-2.605648e-008	0.0296387
-2.603148e-008	0.0236328
-2.600648e-008	0.0335205
-2.598148e-008	0.0289063
-2.595648e-008	0.0190186
-2.593148e-008	0.0205811
-2.590648e-008	0.00739747
-2.588148e-008	0.00666505
-2.585648e-008	0.0179688
-2.583148e-008	0.0202393
-2.580648e-008	0.0226318
-2.578148e-008	0.0234863
-2.575648e-008	0.0249512
-2.573148e-008	0.0207764
-2.570648e-008	0.0143799
-2.568148e-008	0.0134522
-2.565648e-008	0.0149658
-2.563148e-008	0.0258545
-2.560648e-008	0.0303711
-2.558148e-008	0.0180908
-2.555648e-008	0.0133789
-2.553148e-008	0.0202149
-2.550648e-008	0.0265625
-2.548148e-008	0.0325684
-2.545648e-008	0.0287842
-2.543148e-008	0.0251709
-2.540648e-008	0.0273438
-2.538148e-008	0.0141357
-2.535648e-008	0.0166748
-2.533148e-008	0.0300049
-2.530648e-008	0.0164307
-2.528148e-008	0.0217774
-2.525648e-008	0.0355469
-2.523148e-008	0.0143555
-2.520648e-008	0.00769044
-2.518148e-008	0.0220459
-2.515648e-008	0.0239258
-2.513148e-008	0.0233887
-2.510648e-008	0.0127197
-2.508148e-008	0.00737305
-2.505648e-008	0.0206543
-2.503148e-008	0.0239258
-2.500648e-008	0.0280274
-2.498148e-008	0.0221924
-2.495648e-008	0.00717774
-2.493148e-008	0.0162598
-2.490648e-008	0.0220703
-2.488148e-008	0.0153076
-2.485648e-008	0.00856934
-2.483148e-008	0.0136719
-2.480648e-008	0.0286133
-2.478148e-008	0.0188721
-2.475648e-008	0.0165039
-2.473148e-008	0.0304443
-2.470648e-008	0.0211914
-2.468148e-008	0.0157959
-2.465648e-008	0.0195557
-2.463148e-008	0.0232178
-2.460648e-008	0.0336914
-2.458148e-008	0.028833
-2.455648e-008	0.014917
-2.453148e-008	0.0146729
-2.450648e-008	0.0216553
-2.448148e-008	0.0206055
-2.445648e-008	0.017041
-2.443148e-008	0.0181641
-2.440648e-008	0.0156006
-2.438148e-008	0.0206543
-2.435648e-008	0.0265381
-2.433148e-008	0.0152344
-2.430648e-008	0.013208
-2.428148e-008	0.0268066
-2.425648e-008	0.0291992
-2.423148e-008	0.023584
-2.420648e-008	0.0232666
-2.418148e-008	0.0168213
-2.415648e-008	0.013208
-2.413148e-008	0.0255127
-2.410648e-008	0.0257324
-2.408148e-008	0.0232666
-2.405648e-008	0.0279053
-2.403148e-008	0.021582
-2.400648e-008	0.0274658
-2.398148e-008	0.0297608
-2.395648e-008	0.023999
-2.393148e-008	0.0290039
-2.390648e-008	0.0151367
-2.388148e-008	0.0102783
-2.385648e-008	0.0215088
-2.383148e-008	0.0277588
-2.380648e-008	0.037793
-2.378148e-008	0.0241455
-2.375648e-008	0.0142334
-2.373148e-008	0.0180176
-2.370648e-008	0.0171387
-2.368148e-008	0.03479
-2.365648e-008	0.0314209
-2.363148e-008	0.020044
-2.360648e-008	0.0342041
-2.358148e-008	0.0331299
-2.355648e-008	0.0273438
-2.353148e-008	0.0164795
-2.350648e-008	0.00600587
-2.348148e-008	0.0213379
-2.345648e-008	0.0236084
-2.343148e-008	0.0236084
-2.340648e-008	0.0296387
-2.338148e-008	0.0137207
-2.335648e-008	0.0199463
-2.333148e-008	0.0332764
-2.330648e-008	0.0123291
-2.328148e-008	0.00773927
-2.325648e-008	0.0172119
-2.323148e-008	0.0194824
-2.320648e-008	0.029126
-2.318148e-008	0.0171631
-2.315648e-008	0.00393067
-2.313148e-008	0.0244629
-2.310648e-008	0.0329102
-2.308148e-008	0.0164551
-2.305648e-008	0.0147217
-2.303148e-008	0.0276856
-2.300648e-008	0.0218506
-2.298148e-008	0.00617677
-2.295648e-008	0.0128174
-2.293148e-008	0.0263184
-2.290648e-008	0.0255371
-2.288148e-008	0.0191895
-2.285648e-008	0.0139404
-2.283148e-008	0.0192871
-2.280648e-008	0.0258057
-2.278148e-008	0.0173584
-2.275648e-008	0.0115479
-2.273148e-008	0.0116455
-2.270648e-008	0.0192139
-2.268148e-008	0.0278076
-2.265648e-008	0.0165039
-2.263148e-008	0.0125
-2.260648e-008	0.0161133
-2.258148e-008	0.00695802
-2.255648e-008	0.00942384
-2.253148e-008	0.0231934
-2.250648e-008	0.0256836
-2.248148e-008	0.0196045
-2.245648e-008	0.0178467
-2.243148e-008	0.0237793
-2.240648e-008	0.0265381
-2.238148e-008	0.0114746
-2.235648e-008	0.00324708
-2.233148e-008	0.012207
-2.230648e-008	0.0117676
-2.228148e-008	0.0230469
-2.225648e-008	0.0370117
-2.223148e-008	0.0287354
-2.220648e-008	0.0227783
-2.218148e-008	0.0214844
-2.215648e-008	0.0288818
-2.213148e-008	0.0322022
-2.210648e-008	0.0218994
-2.208148e-008	0.0208008
-2.205648e-008	0.021167
-2.203148e-008	0.0207031
-2.200648e-008	0.0198731
-2.198148e-008	0.0160645
-2.195648e-008	0.0166016
-2.193148e-008	0.019165
-2.190648e-008	0.0253174
-2.188148e-008	0.0323486
-2.185648e-008	0.0328369
-2.183148e-008	0.0207764
-2.180648e-008	0.0146973
-2.178148e-008	0.017749
-2.175648e-008	0.0146484
-2.173148e-008	0.0234863
-2.170648e-008	0.0303955
-2.168148e-008	0.0246338
-2.165648e-008	0.0188232
-2.163148e-008	0.0191406
-2.160648e-008	0.0276123
-2.158148e-008	0.0230713
-2.155648e-008	0.0218506
-2.153148e-008	0.0286621
-2.150648e-008	0.0260254
-2.148148e-008	0.0203369
-2.145648e-008	0.0091797
-2.143148e-008	0.0194336
-2.140648e-008	0.0459229
-2.138148e-008	0.0365234
-2.135648e-008	0.0158447
-2.133148e-008	0.0196777
-2.130648e-008	0.0151856
-2.128148e-008	0.00803223
-2.125648e-008	0.0167481
-2.123148e-008	0.0227051
-2.120648e-008	0.0368408
-2.118148e-008	0.039624
-2.115648e-008	0.0204102
-2.113148e-008	0.0143799
-2.110648e-008	0.0226318
-2.108148e-008	0.0345215
-2.105648e-008	0.0341797
-2.103148e-008	0.0296875
-2.100648e-008	0.0269043
-2.098148e-008	0.0154297
-2.095648e-008	0.0158203
-2.093148e-008	0.0133789
-2.090648e-008	0.010083
-2.088148e-008	0.0311768
-2.085648e-008	0.0354492
-2.083148e-008	0.0250977
-2.080648e-008	0.0263672
-2.078148e-008	0.0206787
-2.075648e-008	0.0211182
-2.073148e-008	0.0203857
-2.070648e-008	0.0213867
-2.068148e-008	0.0312744
-2.065648e-008	0.0213867
-2.063148e-008	0.0296143
-2.060648e-008	0.0380859
-2.058148e-008	0.0196533
-2.055648e-008	0.0198486
-2.053148e-008	0.0198731
-2.050648e-008	0.0290039
-2.048148e-008	0.0403809
-2.045648e-008	0.0200928
-2.043148e-008	0.0206787
-2.040648e-008	0.0369385
-2.038148e-008	0.0179199
-2.035648e-008	0.00332032
-2.033148e-008	0.0223877
-2.030648e-008	0.0268555
-2.028148e-008	0.0247803
-2.025648e-008	0.0371826
-2.023148e-008	0.032544
-2.020648e-008	0.0241943
-2.018148e-008	0.0233887
-2.015648e-008	0.0224609
-2.013148e-008	0.0137207