# LECROYWM813Zi	51496	Waveform
# Segments	1	SegmentSize	4002
# Segment	TrigTime	TimeSinceSegment1
# #1	30-Nov-2018 17:24:58	0                 
# Time	Ampl
-5.0001e-008	0.0176025
-4.9976e-008	0.0229492
-4.9951e-008	0.0300781
-4.9926e-008	0.0151611
-4.9901e-008	0.0145752
-4.9876e-008	0.0303467
-4.9851e-008	0.0341309
-4.9826e-008	0.0213867
-4.9801e-008	0.010791
-4.9776e-008	0.0158447
-4.9751e-008	0.0185059
-4.9726e-008	0.0133057
-4.9701e-008	0.0121094
-4.9676e-008	0.0138672
-4.9651e-008	0.0192139
-4.9626e-008	0.0320557
-4.9601e-008	0.0345215
-4.9576e-008	0.0125
-4.9551e-008	0.00031739
-4.9526e-008	0.0124512
-4.9501e-008	0.0193604
-4.9476e-008	0.0148193
-4.9451e-008	0.0164307
-4.9426e-008	0.0220703
-4.9401e-008	0.0175781
-4.9376e-008	0.026001
-4.9351e-008	0.0378906
-4.9326e-008	0.0201416
-4.9301e-008	0.0133301
-4.9276e-008	0.0150879
-4.9251e-008	0.00930177
-4.9226e-008	0.028418
-4.9201e-008	0.0248779
-4.9176e-008	0.0108154
-4.9151e-008	0.0353516
-4.9126e-008	0.0296143
-4.9101e-008	0.0142334
-4.9076e-008	0.0213623
-4.9051e-008	0.0119873
-4.9026e-008	0.0201416
-4.9001e-008	0.0282471
-4.8976e-008	0.0201416
-4.8951e-008	0.0212402
-4.8926e-008	0.023291
-4.8901e-008	0.0394043
-4.8876e-008	0.0361328
-4.8851e-008	0.0184082
-4.8826e-008	0.0224854
-4.8801e-008	0.0196533
-4.8776e-008	0.0219727
-4.8751e-008	0.0324463
-4.8726e-008	0.0351563
-4.8701e-008	0.0215088
-4.8676e-008	0.00329591
-4.8651e-008	0.0100342
-4.8626e-008	0.0164795
-4.8601e-008	0.0186524
-4.8576e-008	0.0270996
-4.8551e-008	0.0328369
-4.8526e-008	0.0329834
-4.8501e-008	0.025415
-4.8476e-008	0.0251221
-4.8451e-008	0.0342041
-4.8426e-008	0.0419678
-4.8401e-008	0.0308594
-4.8376e-008	0.0145752
-4.8351e-008	0.0164307
-4.8326e-008	0.00595704
-4.8301e-008	-0.00119628
-4.8276e-008	0.0223633
-4.8251e-008	0.0308106
-4.8226e-008	0.0168701
-4.8201e-008	0.0149902
-4.8176e-008	0.0251953
-4.8151e-008	0.0380371
-4.8126e-008	0.0280029
-4.8101e-008	0.0036377
-4.8076e-008	0.0158447
-4.8051e-008	0.0278076
-4.8026e-008	0.00891114
-4.8001e-008	0.00749512
-4.7976e-008	0.0325928
-4.7951e-008	0.0446045
-4.7926e-008	0.0218506
-4.7901e-008	0.010376
-4.7876e-008	0.0249512
-4.7851e-008	0.0309326
-4.7826e-008	0.0291992
-4.7801e-008	0.0188965
-4.7776e-008	0.0242188
-4.7751e-008	0.0350586
-4.7726e-008	0.0148193
-4.7701e-008	0.00766602
-4.7676e-008	0.0196045
-4.7651e-008	0.0245117
-4.7626e-008	0.0253174
-4.7601e-008	0.0155029
-4.7576e-008	0.0108643
-4.7551e-008	0.0124512
-4.7526e-008	0.0109131
-4.7501e-008	0.0215332
-4.7476e-008	0.0280029
-4.7451e-008	0.0117432
-4.7426e-008	0.00168458
-4.7401e-008	0.0156494
-4.7376e-008	0.0254395
-4.7351e-008	0.0204102
-4.7326e-008	0.0184082
-4.7301e-008	0.0233154
-4.7276e-008	0.0287598
-4.7251e-008	0.0158447
-4.7226e-008	0.00527345
-4.7201e-008	0.0205811
-4.7176e-008	0.0257813
-4.7151e-008	0.0196777
-4.7126e-008	0.0103516
-4.7101e-008	0.00463868
-4.7076e-008	0.0171143
-4.7051e-008	0.0216065
-4.7026e-008	0.0194824
-4.7001e-008	0.0185303
-4.6976e-008	0.0237793
-4.6951e-008	0.0354248
-4.6926e-008	0.0254639
-4.6901e-008	0.01875
-4.6876e-008	0.0282471
-4.6851e-008	0.0256592
-4.6826e-008	0.0143555
-4.6801e-008	0.0102539
-4.6776e-008	0.0234375
-4.6751e-008	0.030249
-4.6726e-008	0.0179443
-4.6701e-008	0.0130127
-4.6676e-008	0.0160889
-4.6651e-008	0.0262451
-4.6626e-008	0.0246826
-4.6601e-008	0.00678712
-4.6576e-008	0.0220703
-4.6551e-008	0.0337647
-4.6526e-008	0.0097168
-4.6501e-008	0.0145752
-4.6476e-008	0.0338867
-4.6451e-008	0.0254395
-4.6426e-008	0.0161621
-4.6401e-008	0.0205566
-4.6376e-008	0.0327393
-4.6351e-008	0.0380615
-4.6326e-008	0.0312744
-4.6301e-008	0.0240234
-4.6276e-008	0.0121582
-4.6251e-008	0.0122315
-4.6226e-008	0.0209473
-4.6201e-008	0.00937501
-4.6176e-008	0.00742188
-4.6151e-008	0.0213379
-4.6126e-008	0.0232178
-4.6101e-008	0.0198242
-4.6076e-008	0.0265381
-4.6051e-008	0.0330811
-4.6026e-008	0.014502
-4.6001e-008	-0.00346679
-4.5976e-008	0.00859376
-4.5951e-008	0.0295166
-4.5926e-008	0.0328125
-4.5901e-008	0.0208252
-4.5876e-008	0.0202149
-4.5851e-008	0.0240967
-4.5826e-008	0.0192139
-4.5801e-008	0.0145508
-4.5776e-008	0.020044
-4.5751e-008	0.030957
-4.5726e-008	0.0232178
-4.5701e-008	0.0175781
-4.5676e-008	0.0233643
-4.5651e-008	0.0222412
-4.5626e-008	0.023877
-4.5601e-008	0.0131348
-4.5576e-008	0.00905762
-4.5551e-008	0.0199951
-4.5526e-008	0.00776368
-4.5501e-008	0.00642091
-4.5476e-008	0.0165283
-4.5451e-008	0.0119629
-4.5426e-008	0.0168457
-4.5401e-008	0.0244873
-4.5376e-008	0.0333008
-4.5351e-008	0.0299316
-4.5326e-008	0.0115234
-4.5301e-008	0.0175049
-4.5276e-008	0.025
-4.5251e-008	0.0220703
-4.5226e-008	0.0246094
-4.5201e-008	0.0178711
-4.5176e-008	0.019165
-4.5151e-008	0.0247559
-4.5126e-008	0.0173584
-4.5101e-008	0.0209229
-4.5076e-008	0.0210449
-4.5051e-008	0.0081543
-4.5026e-008	0.0145752
-4.5001e-008	0.020166
-4.4976e-008	0.0158203
-4.4951e-008	0.0265625
-4.4926e-008	0.0258545
-4.4901e-008	0.0192383
-4.4876e-008	0.0245361
-4.4851e-008	0.0198975
-4.4826e-008	0.0199707
-4.4801e-008	0.0237793
-4.4776e-008	0.0236572
-4.4751e-008	0.0300781
-4.4726e-008	0.0366455
-4.4701e-008	0.0398193
-4.4676e-008	0.0266846
-4.4651e-008	0.0145508
-4.4626e-008	0.0169922
-4.4601e-008	0.0148682
-4.4576e-008	0.0208984
-4.4551e-008	0.0206055
-4.4526e-008	0.00483399
-4.4501e-008	0.0106201
-4.4476e-008	0.0239014
-4.4451e-008	0.0231934
-4.4426e-008	0.0235107
-4.4401e-008	0.027002
-4.4376e-008	0.0278565
-4.4351e-008	0.0237793
-4.4326e-008	0.020044
-4.4301e-008	0.0247803
-4.4276e-008	0.0276367
-4.4251e-008	0.0198486
-4.4226e-008	0.0153809
-4.4201e-008	0.0161621
-4.4176e-008	0.0195557
-4.4151e-008	0.0281983
-4.4126e-008	0.0197754
-4.4101e-008	0.0108887
-4.4076e-008	0.029126
-4.4051e-008	0.0323975
-4.4026e-008	0.0176514
-4.4001e-008	0.0213867
-4.3976e-008	0.0244629
-4.3951e-008	0.0131592
-4.3926e-008	0.0106445
-4.3901e-008	0.0201172
-4.3876e-008	0.0220459
-4.3851e-008	0.0217285
-4.3826e-008	0.0237793
-4.3801e-008	0.0175537
-4.3776e-008	0.0240234
-4.3751e-008	0.0328858
-4.3726e-008	0.0155274
-4.3701e-008	0.00795899
-4.3676e-008	0.0203369
-4.3651e-008	0.0230225
-4.3626e-008	0.0219971
-4.3601e-008	0.0220703
-4.3576e-008	0.0251953
-4.3551e-008	0.0314453
-4.3526e-008	0.0229736
-4.3501e-008	0.0217285
-4.3476e-008	0.0307617
-4.3451e-008	0.015625
-4.3426e-008	0.00627442
-4.3401e-008	0.0138672
-4.3376e-008	0.00712891
-4.3351e-008	0.00910645
-4.3326e-008	0.0252441
-4.3301e-008	0.0236816
-4.3276e-008	0.0177979
-4.3251e-008	0.017334
-4.3226e-008	0.00839845
-4.3201e-008	0.0143066
-4.3176e-008	0.0346436
-4.3151e-008	0.0291016
-4.3126e-008	0.0126953
-4.3101e-008	0.0153565
-4.3076e-008	0.019165
-4.3051e-008	0.0178955
-4.3026e-008	0.0207275
-4.3001e-008	0.0195557
-4.2976e-008	0.0129639
-4.2951e-008	0.012085
-4.2926e-008	0.0188965
-4.2901e-008	0.0210938
-4.2876e-008	0.0226074
-4.2851e-008	0.0221924
-4.2826e-008	0.012793
-4.2801e-008	0.018042
-4.2776e-008	0.033667
-4.2751e-008	0.0344483
-4.2726e-008	0.0221191
-4.2701e-008	0.019751
-4.2676e-008	0.0315674
-4.2651e-008	0.0297119
-4.2626e-008	0.0222656
-4.2601e-008	0.0224609
-4.2576e-008	0.0205566
-4.2551e-008	0.0172119
-4.2526e-008	0.0159424
-4.2501e-008	0.0214111
-4.2476e-008	0.019165
-4.2451e-008	0.0116699
-4.2426e-008	0.0157471
-4.2401e-008	0.0185303
-4.2376e-008	0.0209717
-4.2351e-008	0.0242188
-4.2326e-008	0.0248779
-4.2301e-008	0.0267334
-4.2276e-008	0.0193848
-4.2251e-008	0.0149658
-4.2226e-008	0.0246826
-4.2201e-008	0.031543
-4.2176e-008	0.0335205
-4.2151e-008	0.0260742
-4.2126e-008	0.0111084
-4.2101e-008	0.0118408
-4.2076e-008	0.0219727
-4.2051e-008	0.023877
-4.2026e-008	0.0181152
-4.2001e-008	0.0149902
-4.1976e-008	0.0250733
-4.1951e-008	0.0264649
-4.1926e-008	0.0147217
-4.1901e-008	0.011377
-4.1876e-008	0.00603028
-4.1851e-008	0.0197754
-4.1826e-008	0.0425049
-4.1801e-008	0.0197754
-4.1776e-008	0.00622559
-4.1751e-008	0.0260742
-4.1726e-008	0.029126
-4.1701e-008	0.026709
-4.1676e-008	0.0158203
-4.1651e-008	0.000488289
-4.1626e-008	0.00385743
-4.1601e-008	0.0117188
-4.1576e-008	0.0281738
-4.1551e-008	0.0299805
-4.1526e-008	0.00476075
-4.1501e-008	0.00786134
-4.1476e-008	0.0220703
-4.1451e-008	0.0187744
-4.1426e-008	0.0243164
-4.1401e-008	0.0255127
-4.1376e-008	0.0202149
-4.1351e-008	0.0234619
-4.1326e-008	0.0268311
-4.1301e-008	0.0236328
-4.1276e-008	0.019751
-4.1251e-008	0.0259277
-4.1226e-008	0.0305176
-4.1201e-008	0.0262451
-4.1176e-008	0.0310791
-4.1151e-008	0.0342041
-4.1126e-008	0.012793
-4.1101e-008	0.00717774
-4.1076e-008	0.0267578
-4.1051e-008	0.0238281
-4.1026e-008	0.0193359
-4.1001e-008	0.0225098
-4.0976e-008	0.0215332
-4.0951e-008	0.0350342
-4.0926e-008	0.035791
-4.0901e-008	0.0163818
-4.0876e-008	0.0133789
-4.0851e-008	0.0213867
-4.0826e-008	0.0189941
-4.0801e-008	0.0159668
-4.0776e-008	0.0183106
-4.0751e-008	0.0166748
-4.0726e-008	0.0122559
-4.0701e-008	0.0100098
-4.0676e-008	0.0151367
-4.0651e-008	0.0304443
-4.0626e-008	0.0351807
-4.0601e-008	0.0208252
-4.0576e-008	0.0236572
-4.0551e-008	0.0279785
-4.0526e-008	0.0130371
-4.0501e-008	0.0168457
-4.0476e-008	0.0198486
-4.0451e-008	0.013208
-4.0426e-008	0.0205566
-4.0401e-008	0.0251953
-4.0376e-008	0.0291504
-4.0351e-008	0.0404541
-4.0326e-008	0.0388672
-4.0301e-008	0.0212647
-4.0276e-008	0.0217529
-4.0251e-008	0.0296387
-4.0226e-008	0.0212647
-4.0201e-008	0.0162842
-4.0176e-008	0.0154053
-4.0151e-008	0.018457
-4.0126e-008	0.0181152
-4.0101e-008	0.0140381
-4.0076e-008	0.0213623
-4.0051e-008	0.0263428
-4.0026e-008	0.0235596
-4.0001e-008	0.0215088
-3.9976e-008	0.0246338
-3.9951e-008	0.0306397
-3.9926e-008	0.0346191
-3.9901e-008	0.0275147
-3.9876e-008	0.0146973
-3.9851e-008	0.0226074
-3.9826e-008	0.0279297
-3.9801e-008	0.0166504
-3.9776e-008	0.0230713
-3.9751e-008	0.0283936
-3.9726e-008	0.0207764
-3.9701e-008	0.023291
-3.9676e-008	0.0196289
-3.9651e-008	0.0139893
-3.9626e-008	0.0208984
-3.9601e-008	0.0223389
-3.9576e-008	0.023169
-3.9551e-008	0.0214111
-3.9526e-008	0.00256348
-3.9501e-008	-0.00180663
-3.9476e-008	0.0228272
-3.9451e-008	0.0364746
-3.9426e-008	0.029541
-3.9401e-008	0.0193848
-3.9376e-008	0.0204102
-3.9351e-008	0.0257568
-3.9326e-008	0.00979005
-3.9301e-008	0.00856934
-3.9276e-008	0.0318115
-3.9251e-008	0.0296631
-3.9226e-008	0.0183106
-3.9201e-008	0.0178467
-3.9176e-008	0.0175049
-3.9151e-008	0.0191406
-3.9126e-008	0.0112549
-3.9101e-008	0.00495606
-3.9076e-008	0.0186035
-3.9051e-008	0.0218506
-3.9026e-008	0.0171875
-3.9001e-008	0.0199707
-3.8976e-008	0.0173828
-3.8951e-008	0.0251465
-3.8926e-008	0.0280274
-3.8901e-008	0.0208008
-3.8876e-008	0.0236572
-3.8851e-008	0.022168
-3.8826e-008	0.0223877
-3.8801e-008	0.02146
-3.8776e-008	0.014209
-3.8751e-008	0.00532227
-3.8726e-008	0.00280762
-3.8701e-008	0.0203857
-3.8676e-008	0.0223633
-3.8651e-008	0.0118652
-3.8626e-008	0.0208984
-3.8601e-008	0.0243408
-3.8576e-008	0.0269531
-3.8551e-008	0.0335205
-3.8526e-008	0.0176514
-3.8501e-008	0.00742188
-3.8476e-008	0.0243408
-3.8451e-008	0.0318604
-3.8426e-008	0.0204346
-3.8401e-008	0.0123291
-3.8376e-008	0.0149658
-3.8351e-008	0.0213379
-3.8326e-008	0.0255127
-3.8301e-008	0.0260742
-3.8276e-008	0.0260254
-3.8251e-008	0.0273438
-3.8226e-008	0.0230225
-3.8201e-008	0.0197998
-3.8176e-008	0.0307129
-3.8151e-008	0.0345947
-3.8126e-008	0.0177246
-3.8101e-008	0.0115967
-3.8076e-008	0.0164551
-3.8051e-008	0.0153076
-3.8026e-008	0.0257324
-3.8001e-008	0.021582
-3.7976e-008	0.0127441
-3.7951e-008	0.0306397
-3.7926e-008	0.018457
-3.7901e-008	0.00905762
-3.7876e-008	0.0310303
-3.7851e-008	0.0209229
-3.7826e-008	0.0134522
-3.7801e-008	0.0249756
-3.7776e-008	0.0217529
-3.7751e-008	0.0175293
-3.7726e-008	0.0241943
-3.7701e-008	0.025415
-3.7676e-008	0.00500489
-3.7651e-008	0.00236817
-3.7626e-008	0.0201172
-3.7601e-008	0.0157715
-3.7576e-008	0.0100586
-3.7551e-008	0.0120361
-3.7526e-008	0.00229493
-3.7501e-008	0.00209962
-3.7476e-008	0.0234131
-3.7451e-008	0.0302246
-3.7426e-008	0.0193359
-3.7401e-008	0.0193604
-3.7376e-008	0.026294
-3.7351e-008	0.0189941
-3.7326e-008	0.0010254
-3.7301e-008	0.0123291
-3.7276e-008	0.0320313
-3.7251e-008	0.0223389
-3.7226e-008	0.0103272
-3.7201e-008	0.0069336
-3.7176e-008	0.0217041
-3.7151e-008	0.0378418
-3.7126e-008	0.0293457
-3.7101e-008	0.0213623
-3.7076e-008	0.0165039
-3.7051e-008	0.0161865
-3.7026e-008	0.0234375
-3.7001e-008	0.0185547
-3.6976e-008	0.0217774
-3.6951e-008	0.0406494
-3.6926e-008	0.0337647
-3.6901e-008	0.0175049
-3.6876e-008	0.0253906
-3.6851e-008	0.024707
-3.6826e-008	0.0199219
-3.6801e-008	0.022168
-3.6776e-008	0.0191406
-3.6751e-008	0.0318359
-3.6726e-008	0.0276367
-3.6701e-008	0.00637208
-3.6676e-008	0.0178467
-3.6651e-008	0.0286621
-3.6626e-008	0.0226318
-3.6601e-008	0.0195313
-3.6576e-008	0.0204834
-3.6551e-008	0.0183838
-3.6526e-008	0.01521
-3.6501e-008	0.0229981
-3.6476e-008	0.0223145
-3.6451e-008	0.0126465
-3.6426e-008	0.00600587
-3.6401e-008	0.00827637
-3.6376e-008	0.0228027
-3.6351e-008	0.0259522
-3.6326e-008	0.0187012
-3.6301e-008	0.012915
-3.6276e-008	0.0189209
-3.6251e-008	0.0274902
-3.6226e-008	0.0204102
-3.6201e-008	0.017041
-3.6176e-008	0.0210693
-3.6151e-008	0.0302246
-3.6126e-008	0.0273193
-3.6101e-008	0.0166016
-3.6076e-008	0.0274414
-3.6051e-008	0.01875
-3.6026e-008	0.0044922
-3.6001e-008	0.0189453
-3.5976e-008	0.0118652
-3.5951e-008	0.00344239
-3.5926e-008	0.0200195
-3.5901e-008	0.0225586
-3.5876e-008	0.0217774
-3.5851e-008	0.0239502
-3.5826e-008	0.0161377
-3.5801e-008	0.00893555
-3.5776e-008	0.0112549
-3.5751e-008	0.027002
-3.5726e-008	0.0277344
-3.5701e-008	0.0159424
-3.5676e-008	0.0251953
-3.5651e-008	0.0292725
-3.5626e-008	0.0260498
-3.5601e-008	0.0321777
-3.5576e-008	0.0327393
-3.5551e-008	0.0309326
-3.5526e-008	0.0233643
-3.5501e-008	0.013208
-3.5476e-008	0.0104248
-3.5451e-008	0.0178711
-3.5426e-008	0.0281983
-3.5401e-008	0.0163086
-3.5376e-008	0.0119141
-3.5351e-008	0.0234619
-3.5326e-008	0.0216797
-3.5301e-008	0.0226807
-3.5276e-008	0.0197022
-3.5251e-008	0.0223877
-3.5226e-008	0.0310791
-3.5201e-008	0.0177002
-3.5176e-008	0.0189941
-3.5151e-008	0.0342285
-3.5126e-008	0.019043
-3.5101e-008	0.00200196
-3.5076e-008	0.0177002
-3.5051e-008	0.0288818
-3.5026e-008	0.0213135
-3.5001e-008	0.025708
-3.4976e-008	0.0274658
-3.4951e-008	0.0281494
-3.4926e-008	0.0322022
-3.4901e-008	0.0220215
-3.4876e-008	0.0236816
-3.4851e-008	0.0247315
-3.4826e-008	0.0130859
-3.4801e-008	0.0242676
-3.4776e-008	0.0315674
-3.4751e-008	0.0119873
-3.4726e-008	-0.00268554
-3.4701e-008	0.00476075
-3.4676e-008	0.0247315
-3.4651e-008	0.0238281
-3.4626e-008	0.0163086
-3.4601e-008	0.0236084
-3.4576e-008	0.0153076
-3.4551e-008	0.0143799
-3.4526e-008	0.0248779
-3.4501e-008	0.020874
-3.4476e-008	0.019165
-3.4451e-008	0.0102295
-3.4426e-008	0.0119873
-3.4401e-008	0.0280029
-3.4376e-008	0.0285645
-3.4351e-008	0.0288818
-3.4326e-008	0.0206543
-3.4301e-008	0.0119141
-3.4276e-008	0.0179199
-3.4251e-008	0.0225586
-3.4226e-008	0.0242676
-3.4201e-008	0.0175781
-3.4176e-008	0.0225586
-3.4151e-008	0.0305664
-3.4126e-008	0.0198975
-3.4101e-008	0.0265869
-3.4076e-008	0.042749
-3.4051e-008	0.0361572
-3.4026e-008	0.0191162
-3.4001e-008	0.0128418
-3.3976e-008	0.0238525
-3.3951e-008	0.0291748
-3.3926e-008	0.0115723
-3.3901e-008	0.00637208
-3.3876e-008	0.0268311
-3.3851e-008	0.0291504
-3.3826e-008	0.0240723
-3.3801e-008	0.0358399
-3.3776e-008	0.0374512
-3.3751e-008	0.0279053
-3.3726e-008	0.0186035
-3.3701e-008	0.0135742
-3.3676e-008	0.0182129
-3.3651e-008	0.0250977
-3.3626e-008	0.0239746
-3.3601e-008	0.0166016
-3.3576e-008	0.0147217
-3.3551e-008	0.0172119
-3.3526e-008	0.0193359
-3.3501e-008	0.0157959
-3.3476e-008	0.0124268
-3.3451e-008	0.0269775
-3.3426e-008	0.0418945
-3.3401e-008	0.0347656
-3.3376e-008	0.0272217
-3.3351e-008	0.0274902
-3.3326e-008	0.0150147
-3.3301e-008	0.0135742
-3.3276e-008	0.0247315
-3.3251e-008	0.0169922
-3.3226e-008	0.0136719
-3.3201e-008	0.0171631
-3.3176e-008	0.0199463
-3.3151e-008	0.0243164
-3.3126e-008	0.0157471
-3.3101e-008	0.0162598
-3.3076e-008	0.0204346
-3.3051e-008	0.0168457
-3.3026e-008	0.0184326
-3.3001e-008	0.0164063
-3.2976e-008	0.0278076
-3.2951e-008	0.0371338
-3.2926e-008	0.0205322
-3.2901e-008	0.0206543
-3.2876e-008	0.0372803
-3.2851e-008	0.0320801
-3.2826e-008	0.0143799
-3.2801e-008	0.00981446
-3.2776e-008	0.015918
-3.2751e-008	0.018335
-3.2726e-008	0.0090088
-3.2701e-008	0.00180665
-3.2676e-008	0.0164063
-3.2651e-008	0.0300049
-3.2626e-008	0.0255371
-3.2601e-008	0.0202149
-3.2576e-008	0.0212402
-3.2551e-008	0.0229004
-3.2526e-008	0.0246094
-3.2501e-008	0.0246582
-3.2476e-008	0.0213867
-3.2451e-008	0.028418
-3.2426e-008	0.027832
-3.2401e-008	0.0150879
-3.2376e-008	0.0197998
-3.2351e-008	0.0268311
-3.2326e-008	0.0259766
-3.2301e-008	0.0236328
-3.2276e-008	0.0243652
-3.2251e-008	0.0243652
-3.2226e-008	0.0165039
-3.2201e-008	0.0168945
-3.2176e-008	0.0185791
-3.2151e-008	0.0167481
-3.2126e-008	0.0126953
-3.2101e-008	0.0124512
-3.2076e-008	0.0257324
-3.2051e-008	0.0263184
-3.2026e-008	0.0216797
-3.2001e-008	0.0197754
-3.1976e-008	0.0190918
-3.1951e-008	0.0320801
-3.1926e-008	0.0272217
-3.1901e-008	0.0134766
-3.1876e-008	0.0194824
-3.1851e-008	0.0296631
-3.1826e-008	0.0296631
-3.1801e-008	0.0176514
-3.1776e-008	0.0236084
-3.1751e-008	0.0307373
-3.1726e-008	0.00776368
-3.1701e-008	0.010376
-3.1676e-008	0.0335205
-3.1651e-008	0.0230713
-3.1626e-008	0.0190674
-3.1601e-008	0.0328369
-3.1576e-008	0.0189941
-3.1551e-008	0.0161865
-3.1526e-008	0.0331787
-3.1501e-008	0.0206299
-3.1476e-008	0.0128418
-3.1451e-008	0.0111572
-3.1426e-008	0.00996095
-3.1401e-008	0.0303467
-3.1376e-008	0.0266602
-3.1351e-008	0.0218994
-3.1326e-008	0.0290527
-3.1301e-008	0.023999
-3.1276e-008	0.0324463
-3.1251e-008	0.026294
-3.1226e-008	0.020459
-3.1201e-008	0.0350586
-3.1176e-008	0.030835
-3.1151e-008	0.0292725
-3.1126e-008	0.0284912
-3.1101e-008	0.0186768
-3.1076e-008	0.0235107
-3.1051e-008	0.0231201
-3.1026e-008	0.0197754
-3.1001e-008	0.0229248
-3.0976e-008	0.00939942
-3.0951e-008	0.00278321
-3.0926e-008	0.0155762
-3.0901e-008	0.0215576
-3.0876e-008	0.0257324
-3.0851e-008	0.0300049
-3.0826e-008	0.0272949
-3.0801e-008	0.0192383
-3.0776e-008	0.0224854
-3.0751e-008	0.0237793
-3.0726e-008	-0.000488274
-3.0701e-008	0.00231934
-3.0676e-008	0.0197266
-3.0651e-008	0.0189941
-3.0626e-008	0.0287109
-3.0601e-008	0.0222656
-3.0576e-008	0.018335
-3.0551e-008	0.0272705
-3.0526e-008	0.0176758
-3.0501e-008	0.0205566
-3.0476e-008	0.0250977
-3.0451e-008	0.0167725
-3.0426e-008	0.0164795
-3.0401e-008	0.0201904
-3.0376e-008	0.0257568
-3.0351e-008	0.0320313
-3.0326e-008	0.0312256
-3.0301e-008	0.0202881
-3.0276e-008	0.0140625
-3.0251e-008	0.021875
-3.0226e-008	0.025
-3.0201e-008	0.00981446
-3.0176e-008	0.00690919
-3.0151e-008	0.0281494
-3.0126e-008	0.0281738
-3.0101e-008	0.0235352
-3.0076e-008	0.0277344
-3.0051e-008	0.0131592
-3.0026e-008	0.0132324
-3.0001e-008	0.0216553
-2.9976e-008	0.0171143
-2.9951e-008	0.0188965
-2.9926e-008	0.0136475
-2.9901e-008	0.00976563
-2.9876e-008	0.0211182
-2.9851e-008	0.0245606
-2.9826e-008	0.0249756
-2.9801e-008	0.0266602
-2.9776e-008	0.00270997
-2.9751e-008	-0.00131835
-2.9726e-008	0.0317627
-2.9701e-008	0.0290283
-2.9676e-008	0.0223389
-2.9651e-008	0.0312988
-2.9626e-008	0.0235107
-2.9601e-008	0.0299316
-2.9576e-008	0.0367676
-2.9551e-008	0.0282715
-2.9526e-008	0.0163574
-2.9501e-008	0.0128906
-2.9476e-008	0.0246826
-2.9451e-008	0.0316162
-2.9426e-008	0.0290039
-2.9401e-008	0.013208
-2.9376e-008	0.0147217
-2.9351e-008	0.0340332
-2.9326e-008	0.0208252
-2.9301e-008	0.00888673
-2.9276e-008	0.0130127
-2.9251e-008	0.0100098
-2.9226e-008	0.0158203
-2.9201e-008	0.0196289
-2.9176e-008	0.0209961
-2.9151e-008	0.0275635
-2.9126e-008	0.0227051
-2.9101e-008	0.0238525
-2.9076e-008	0.0335938
-2.9051e-008	0.0303467
-2.9026e-008	0.0236328
-2.9001e-008	0.0147705
-2.8976e-008	0.010376
-2.8951e-008	0.0131836
-2.8926e-008	0.0101807
-2.8901e-008	0.018042
-2.8876e-008	0.02771
-2.8851e-008	0.0220459
-2.8826e-008	0.024585
-2.8801e-008	0.0327637
-2.8776e-008	0.0333496
-2.8751e-008	0.0293945
-2.8726e-008	0.0183838
-2.8701e-008	0.0126465
-2.8676e-008	0.0123047
-2.8651e-008	0.0135498
-2.8626e-008	0.0222656
-2.8601e-008	0.0224121
-2.8576e-008	0.0194092
-2.8551e-008	0.0278565
-2.8526e-008	0.0263672
-2.8501e-008	0.0135986
-2.8476e-008	0.0255615
-2.8451e-008	0.0411621
-2.8426e-008	0.0249024
-2.8401e-008	0.0185791
-2.8376e-008	0.0233887
-2.8351e-008	0.0199219
-2.8326e-008	0.0199219
-2.8301e-008	0.0144043
-2.8276e-008	0.0205078
-2.8251e-008	0.0289795
-2.8226e-008	0.0276856
-2.8201e-008	0.0182861
-2.8176e-008	-0.00375976
-2.8151e-008	0.0113281
-2.8126e-008	0.0346924
-2.8101e-008	0.0300049
-2.8076e-008	0.0336914
-2.8051e-008	0.0298584
-2.8026e-008	0.0206055
-2.8001e-008	0.0144775
-2.7976e-008	0.0197266
-2.7951e-008	0.0293457
-2.7926e-008	0.012207
-2.7901e-008	0.0154541
-2.7876e-008	0.0153565
-2.7851e-008	-0.00388183
-2.7826e-008	0.017334
-2.7801e-008	0.0274658
-2.7776e-008	0.0270996
-2.7751e-008	0.0374024
-2.7726e-008	0.0260498
-2.7701e-008	0.0290283
-2.7676e-008	0.0349121
-2.7651e-008	0.0255859
-2.7626e-008	0.0292481
-2.7601e-008	0.0348389
-2.7576e-008	0.0276123
-2.7551e-008	0.0189697
-2.7526e-008	0.0195068
-2.7501e-008	0.019458
-2.7476e-008	0.0187988
-2.7451e-008	0.0222412
-2.7426e-008	0.0207031
-2.7401e-008	0.0157715
-2.7376e-008	0.022168
-2.7351e-008	0.0328858
-2.7326e-008	0.0300781
-2.7301e-008	0.0237305
-2.7276e-008	0.0208984
-2.7251e-008	0.0237793
-2.7226e-008	0.0269531
-2.7201e-008	0.0243652
-2.7176e-008	0.0294922
-2.7151e-008	0.0307617
-2.7126e-008	0.0241943
-2.7101e-008	0.024585
-2.7076e-008	0.0186768
-2.7051e-008	0.0137451
-2.7026e-008	0.0204102
-2.7001e-008	0.0167236
-2.6976e-008	0.0202393
-2.6951e-008	0.037085
-2.6926e-008	0.0285156
-2.6901e-008	0.0181152
-2.6876e-008	0.0281983
-2.6851e-008	0.0220459
-2.6826e-008	0.00341798
-2.6801e-008	0.00742188
-2.6776e-008	0.0206787
-2.6751e-008	0.0267578
-2.6726e-008	0.0252197
-2.6701e-008	0.00444337
-2.6676e-008	0.000463875
-2.6651e-008	0.0188477
-2.6626e-008	0.0199707
-2.6601e-008	0.0232422
-2.6576e-008	0.0258789
-2.6551e-008	0.0177979
-2.6526e-008	0.0168945
-2.6501e-008	0.0135254
-2.6476e-008	0.0112793
-2.6451e-008	0.0202637
-2.6426e-008	0.0316895
-2.6401e-008	0.0297852
-2.6376e-008	0.0227783
-2.6351e-008	0.0274414
-2.6326e-008	0.0157715
-2.6301e-008	0.00666505
-2.6276e-008	0.0224121
-2.6251e-008	0.019751
-2.6226e-008	0.0207764
-2.6201e-008	0.030127
-2.6176e-008	0.0261475
-2.6151e-008	0.0287598
-2.6126e-008	0.0158203
-2.6101e-008	0.0100586
-2.6076e-008	0.0237305
-2.6051e-008	0.021167
-2.6026e-008	0.0247315
-2.6001e-008	0.0286377
-2.5976e-008	0.0251465
-2.5951e-008	0.0245117
-2.5926e-008	0.019043
-2.5901e-008	0.0185059
-2.5876e-008	0.0214111
-2.5851e-008	0.0225342
-2.5826e-008	0.0184082
-2.5801e-008	0.0135986
-2.5776e-008	0.0230713
-2.5751e-008	0.0366211
-2.5726e-008	0.0326172
-2.5701e-008	0.0186035
-2.5676e-008	0.0193848
-2.5651e-008	0.0240234
-2.5626e-008	0.0180176
-2.5601e-008	0.0117676
-2.5576e-008	0.0194092
-2.5551e-008	0.0281738
-2.5526e-008	0.0107178
-2.5501e-008	0.00998536
-2.5476e-008	0.0329102
-2.5451e-008	0.0304932
-2.5426e-008	0.0237061
-2.5401e-008	0.0164307
-2.5376e-008	0.0127686
-2.5351e-008	0.0226807
-2.5326e-008	0.0166748
-2.5301e-008	0.0201172
-2.5276e-008	0.0326172
-2.5251e-008	0.0268066
-2.5226e-008	0.027002
-2.5201e-008	0.0242432
-2.5176e-008	0.0189209
-2.5151e-008	0.0307129
-2.5126e-008	0.0268066
-2.5101e-008	0.0105225
-2.5076e-008	0.0171875
-2.5051e-008	0.0241943
-2.5026e-008	0.0174316
-2.5001e-008	0.0120117
-2.4976e-008	0.0182129
-2.4951e-008	0.034375
-2.4926e-008	0.0310303
-2.4901e-008	0.0206543
-2.4876e-008	0.0180908
-2.4851e-008	0.0163818
-2.4826e-008	0.0342285
-2.4801e-008	0.0350098
-2.4776e-008	0.0126709
-2.4751e-008	0.0114014
-2.4726e-008	0.00751954
-2.4701e-008	0.00312501
-2.4676e-008	0.0159424
-2.4651e-008	0.0229492
-2.4626e-008	0.025293
-2.4601e-008	0.0258789
-2.4576e-008	0.0201904
-2.4551e-008	0.013794
-2.4526e-008	0.0169434
-2.4501e-008	0.0292236
-2.4476e-008	0.0229004
-2.4451e-008	0.0144043
-2.4426e-008	0.0205811
-2.4401e-008	0.0208984
-2.4376e-008	0.0345703
-2.4351e-008	0.035669
-2.4326e-008	0.015918
-2.4301e-008	0.0197754
-2.4276e-008	0.0186524
-2.4251e-008	0.0191162
-2.4226e-008	0.0267578
-2.4201e-008	0.00754395
-2.4176e-008	0.00927735
-2.4151e-008	0.0361084
-2.4126e-008	0.0306885
-2.4101e-008	0.0194824
-2.4076e-008	0.0287842
-2.4051e-008	0.0221191
-2.4026e-008	0.00681153
-2.4001e-008	0.0105713
-2.3976e-008	0.0210938
-2.3951e-008	0.0273438
-2.3926e-008	0.0190674
-2.3901e-008	0.0127441
-2.3876e-008	0.0254395
-2.3851e-008	0.0268066
-2.3826e-008	0.0182861
-2.3801e-008	0.0188965
-2.3776e-008	0.0207031
-2.3751e-008	0.0216553
-2.3726e-008	0.0244141
-2.3701e-008	0.0260254
-2.3676e-008	0.0181152
-2.3651e-008	0.0137695
-2.3626e-008	0.027124
-2.3601e-008	0.0269287
-2.3576e-008	0.00993653
-2.3551e-008	0.00881348
-2.3526e-008	0.0119873
-2.3501e-008	0.0240723
-2.3476e-008	0.0355713
-2.3451e-008	0.00998536
-2.3426e-008	0.00197755
-2.3401e-008	0.0170166
-2.3376e-008	0.00878907
-2.3351e-008	0.0121094
-2.3326e-008	0.0245606
-2.3301e-008	0.0276611
-2.3276e-008	0.0341797
-2.3251e-008	0.0253174
-2.3226e-008	0.00983887
-2.3201e-008	0.0147461
-2.3176e-008	0.0198731
-2.3151e-008	0.0214356
-2.3126e-008	0.0240234
-2.3101e-008	0.0161377
-2.3076e-008	0.0199219
-2.3051e-008	0.0220703
-2.3026e-008	0.0134277
-2.3001e-008	0.022583
-2.2976e-008	0.0185547
-2.2951e-008	0.00556641
-2.2926e-008	0.0136719
-2.2901e-008	0.0243652
-2.2876e-008	0.0291748
-2.2851e-008	0.0227539
-2.2826e-008	0.0172607
-2.2801e-008	0.0187744
-2.2776e-008	0.0186524
-2.2751e-008	0.0205322
-2.2726e-008	0.0112793
-2.2701e-008	0.0127686
-2.2676e-008	0.0289307
-2.2651e-008	0.0214844
-2.2626e-008	0.0164795
-2.2601e-008	0.0233154
-2.2576e-008	0.0203125
-2.2551e-008	0.0298096
-2.2526e-008	0.0398926
-2.2501e-008	0.0256836
-2.2476e-008	0.0153076
-2.2451e-008	0.0139649
-2.2426e-008	0.0113525
-2.2401e-008	0.0162354
-2.2376e-008	0.0171631
-2.2351e-008	0.0232178
-2.2326e-008	0.0320801
-2.2301e-008	0.02146
-2.2276e-008	0.024292
-2.2251e-008	0.0330078
-2.2226e-008	0.0153809
-2.2201e-008	0.00878907
-2.2176e-008	0.0261963
-2.2151e-008	0.0299805
-2.2126e-008	0.0123291
-2.2101e-008	0.0107178
-2.2076e-008	0.0263672
-2.2051e-008	0.0260254
-2.2026e-008	0.0166016
-2.2001e-008	0.00510255
-2.1976e-008	0.00622559
-2.1951e-008	0.0301025
-2.1926e-008	0.0305664
-2.1901e-008	0.0132324
-2.1876e-008	0.0179688
-2.1851e-008	0.0297608
-2.1826e-008	0.0375733
-2.1801e-008	0.0340576
-2.1776e-008	0.0196289
-2.1751e-008	0.0108643
-2.1726e-008	0.00932618
-2.1701e-008	0.0189941
-2.1676e-008	0.0283447
-2.1651e-008	0.0267822
-2.1626e-008	0.0222168
-2.1601e-008	0.0174072
-2.1576e-008	0.02229
-2.1551e-008	0.0216065
-2.1526e-008	0.0114502
-2.1501e-008	0.0190918
-2.1476e-008	0.023877
-2.1451e-008	0.0180176
-2.1426e-008	0.0185791
-2.1401e-008	0.0101807
-2.1376e-008	0.0139893
-2.1351e-008	0.0263916
-2.1326e-008	0.0123779
-2.1301e-008	0.0187012
-2.1276e-008	0.0379639
-2.1251e-008	0.0186524
-2.1226e-008	0.0053711
-2.1201e-008	0.0165527
-2.1176e-008	0.0267822
-2.1151e-008	0.027124
-2.1126e-008	0.014502
-2.1101e-008	0.0112305
-2.1076e-008	0.023584
-2.1051e-008	0.0335938
-2.1026e-008	0.0289551
-2.1001e-008	0.0162354
-2.0976e-008	0.0185791
-2.0951e-008	0.0325195
-2.0926e-008	0.024585
-2.0901e-008	0.00251466
-2.0876e-008	0.01521
-2.0851e-008	0.0293701
-2.0826e-008	0.00639649
-2.0801e-008	-0.0019287
-2.0776e-008	0.0232666
-2.0751e-008	0.0435059
-2.0726e-008	0.0229981
-2.0701e-008	0.00749512
-2.0676e-008	0.0347168
-2.0651e-008	0.0388672
-2.0626e-008	0.0158447
-2.0601e-008	0.0116943
-2.0576e-008	0.0241943
-2.0551e-008	0.0366455
-2.0526e-008	0.037085
-2.0501e-008	0.0205566
-2.0476e-008	0.0111572
-2.0451e-008	0.016919
-2.0426e-008	0.0102539
-2.0401e-008	0.0121582
-2.0376e-008	0.0233154
-2.0351e-008	0.0276123
-2.0326e-008	0.0267578
-2.0301e-008	0.0129395
-2.0276e-008	0.0227539
-2.0251e-008	0.0322998
-2.0226e-008	0.0213135
-2.0201e-008	0.0267334
-2.0176e-008	0.0281738
-2.0151e-008	0.0255859
-2.0126e-008	0.0148926
-2.0101e-008	0.00634766
-2.0076e-008	0.0201416
-2.0051e-008	0.0196533
-2.0026e-008	0.0187256
-2.0001e-008	0.0209229
-1.9976e-008	0.0201172
-1.9951e-008	0.0264649
-1.9926e-008	0.00742188
-1.9901e-008	2.44215e-005
-1.9876e-008	0.017627
-1.9851e-008	0.0213135
-1.9826e-008	0.0314941
-1.9801e-008	0.0283691
-1.9776e-008	0.01875
-1.9751e-008	0.0279541
-1.9726e-008	0.0245606
-1.9701e-008	0.0259766
-1.9676e-008	0.0310303
-1.9651e-008	0.021875
-1.9626e-008	0.0167725
-1.9601e-008	0.014502
-1.9576e-008	0.0229736
-1.9551e-008	0.0328125
-1.9526e-008	0.0268311
-1.9501e-008	0.0234131
-1.9476e-008	0.029541
-1.9451e-008	0.0331543
-1.9426e-008	0.0235107
-1.9401e-008	0.0170899
-1.9376e-008	0.0339111
-1.9351e-008	0.0349854
-1.9326e-008	0.0108399
-1.9301e-008	0.0193848
-1.9276e-008	0.0260986
-1.9251e-008	0.00788575
-1.9226e-008	0.026416
-1.9201e-008	0.0306641
-1.9176e-008	0.00778809
-1.9151e-008	0.0158936
-1.9126e-008	0.0182861
-1.9101e-008	0.0171143
-1.9076e-008	0.0244385
-1.9051e-008	0.0220703
-1.9026e-008	0.0218506
-1.9001e-008	0.0226074
-1.8976e-008	0.0228272
-1.8951e-008	0.0191895
-1.8926e-008	0.0223633
-1.8901e-008	0.0281983
-1.8876e-008	0.0226807
-1.8851e-008	0.019751
-1.8826e-008	0.00932618
-1.8801e-008	0.00793458
-1.8776e-008	0.0234863
-1.8751e-008	0.0200684
-1.8726e-008	0.0170654
-1.8701e-008	0.0232666
-1.8676e-008	0.0183106
-1.8651e-008	0.0209717
-1.8626e-008	0.0248535
-1.8601e-008	0.0212158
-1.8576e-008	0.0314697
-1.8551e-008	0.0285889
-1.8526e-008	0.0120117
-1.8501e-008	0.0163818
-1.8476e-008	0.0179443
-1.8451e-008	0.0153565
-1.8426e-008	0.0254639
-1.8401e-008	0.024585
-1.8376e-008	0.0213379
-1.8351e-008	0.0240479
-1.8326e-008	0.0149658
-1.8301e-008	0.014502
-1.8276e-008	0.0160645
-1.8251e-008	0.0114502
-1.8226e-008	0.021582
-1.8201e-008	0.0135254
-1.8176e-008	0.010791
-1.8151e-008	0.0289063
-1.8126e-008	0.0272949
-1.8101e-008	0.0352783
-1.8076e-008	0.0350342
-1.8051e-008	0.0198975
-1.8026e-008	0.024292
-1.8001e-008	0.0177246
-1.7976e-008	0.0143311
-1.7951e-008	0.0260498
-1.7926e-008	0.0198242
-1.7901e-008	0.0141113
-1.7876e-008	0.0212158
-1.7851e-008	0.0238281
-1.7826e-008	0.0221924
-1.7801e-008	0.0144287
-1.7776e-008	0.0220703
-1.7751e-008	0.0367676
-1.7726e-008	0.0155518
-1.7701e-008	0.00522462
-1.7676e-008	0.0219482
-1.7651e-008	0.0219727
-1.7626e-008	0.0213623
-1.7601e-008	0.027124
-1.7576e-008	0.0316162