# LECROYWM813Zi	51496	Waveform
# Segments	1	SegmentSize	4002
# Segment	TrigTime	TimeSinceSegment1
# #1	30-Nov-2018 17:11:30	0                 
# Time	Ampl
-5.00115e-008	0.0178711
-4.99865e-008	0.0267334
-4.99615e-008	0.0221924
-4.99365e-008	0.0128174
-4.99115e-008	0.0109131
-4.98865e-008	0.0156006
-4.98615e-008	0.0219727
-4.98365e-008	0.0204102
-4.98115e-008	0.008667
-4.97865e-008	0.012793
-4.97615e-008	0.0297852
-4.97365e-008	0.0177246
-4.97115e-008	0.00471192
-4.96865e-008	0.0171875
-4.96615e-008	0.0189941
-4.96365e-008	0.0159668
-4.96115e-008	0.0277832
-4.95865e-008	0.0300049
-4.95615e-008	0.0220459
-4.95365e-008	0.0244385
-4.95115e-008	0.0273438
-4.94865e-008	0.026416
-4.94615e-008	0.0259522
-4.94365e-008	0.0194092
-4.94115e-008	0.00458985
-4.93865e-008	0.00219727
-4.93615e-008	0.0200928
-4.93365e-008	0.0257324
-4.93115e-008	0.0211426
-4.92865e-008	0.0272217
-4.92615e-008	0.0320068
-4.92365e-008	0.0246582
-4.92115e-008	0.0243164
-4.91865e-008	0.0404297
-4.91615e-008	0.0266113
-4.91365e-008	-0.00874023
-4.91115e-008	-0.00151366
-4.90865e-008	0.025
-4.90615e-008	0.0256348
-4.90365e-008	0.0185059
-4.90115e-008	0.0177246
-4.89865e-008	0.0199951
-4.89615e-008	0.0251709
-4.89365e-008	0.0183594
-4.89115e-008	0.0103027
-4.88865e-008	0.0238037
-4.88615e-008	0.0298828
-4.88365e-008	0.0202637
-4.88115e-008	0.0218506
-4.87865e-008	0.0157715
-4.87615e-008	0.00861817
-4.87365e-008	0.0229981
-4.87115e-008	0.0271484
-4.86865e-008	0.0281494
-4.86615e-008	0.0306885
-4.86365e-008	0.0246338
-4.86115e-008	0.0272217
-4.85865e-008	0.0257813
-4.85615e-008	0.0185059
-4.85365e-008	0.00488282
-4.85115e-008	0.00769044
-4.84865e-008	0.0312012
-4.84615e-008	0.0285645
-4.84365e-008	0.0290772
-4.84115e-008	0.030957
-4.83865e-008	0.0190674
-4.83615e-008	0.0261719
-4.83365e-008	0.0248779
-4.83115e-008	0.0175293
-4.82865e-008	0.0172852
-4.82615e-008	0.0185303
-4.82365e-008	0.0227783
-4.82115e-008	0.0136231
-4.81865e-008	0.0182861
-4.81615e-008	0.0268311
-4.81365e-008	0.0159668
-4.81115e-008	0.0202149
-4.80865e-008	0.0232422
-4.80615e-008	0.0238281
-4.80365e-008	0.0328369
-4.80115e-008	0.0222168
-4.79865e-008	0.0170654
-4.79615e-008	0.0126221
-4.79365e-008	-0.00249023
-4.79115e-008	0.014502
-4.78865e-008	0.0272705
-4.78615e-008	0.0165527
-4.78365e-008	0.0209961
-4.78115e-008	0.0232422
-4.77865e-008	0.0258057
-4.77615e-008	0.0311524
-4.77365e-008	0.0229004
-4.77115e-008	0.0235107
-4.76865e-008	0.0270752
-4.76615e-008	0.0247803
-4.76365e-008	0.0317871
-4.76115e-008	0.0281494
-4.75865e-008	0.01604
-4.75615e-008	0.023877
-4.75365e-008	0.0187744
-4.75115e-008	0.00466309
-4.74865e-008	0.0192871
-4.74615e-008	0.02146
-4.74365e-008	0.0134277
-4.74115e-008	0.0178467
-4.73865e-008	0.0237305
-4.73615e-008	0.0385498
-4.73365e-008	0.026294
-4.73115e-008	0.00378419
-4.72865e-008	0.0187012
-4.72615e-008	0.0293213
-4.72365e-008	0.0179443
-4.72115e-008	0.0196045
-4.71865e-008	0.034668
-4.71615e-008	0.0299072
-4.71365e-008	0.0232422
-4.71115e-008	0.0286377
-4.70865e-008	0.0219727
-4.70615e-008	0.0194336
-4.70365e-008	0.0195557
-4.70115e-008	0.0191406
-4.69865e-008	0.0190918
-4.69615e-008	0.0108887
-4.69365e-008	0.0147949
-4.69115e-008	0.0215088
-4.68865e-008	0.0287354
-4.68615e-008	0.0364258
-4.68365e-008	0.0245117
-4.68115e-008	0.0161865
-4.67865e-008	0.0213379
-4.67615e-008	0.0219238
-4.67365e-008	0.02229
-4.67115e-008	0.0275391
-4.66865e-008	0.0224365
-4.66615e-008	0.0171631
-4.66365e-008	0.0296875
-4.66115e-008	0.0301758
-4.65865e-008	0.0198242
-4.65615e-008	0.0248535
-4.65365e-008	0.0288574
-4.65115e-008	0.0226563
-4.64865e-008	0.0202393
-4.64615e-008	0.0262451
-4.64365e-008	0.0235352
-4.64115e-008	0.0118897
-4.63865e-008	0.0158203
-4.63615e-008	0.0187012
-4.63365e-008	0.0133789
-4.63115e-008	0.0241699
-4.62865e-008	0.0261475
-4.62615e-008	0.0161133
-4.62365e-008	0.0216553
-4.62115e-008	0.0202881
-4.61865e-008	0.0160645
-4.61615e-008	0.0225586
-4.61365e-008	0.0212647
-4.61115e-008	0.0235107
-4.60865e-008	0.0221191
-4.60615e-008	0.0128662
-4.60365e-008	0.0130371
-4.60115e-008	0.00791016
-4.59865e-008	0.0173096
-4.59615e-008	0.036499
-4.59365e-008	0.0214356
-4.59115e-008	0.00976563
-4.58865e-008	0.0183594
-4.58615e-008	0.0135498
-4.58365e-008	0.0186768
-4.58115e-008	0.0352051
-4.57865e-008	0.0273926
-4.57615e-008	0.0131592
-4.57365e-008	0.00861817
-4.57115e-008	0.0104248
-4.56865e-008	0.022168
-4.56615e-008	0.0225586
-4.56365e-008	0.0173828
-4.56115e-008	0.0176514
-4.55865e-008	0.0167725
-4.55615e-008	0.0268555
-4.55365e-008	0.0225342
-4.55115e-008	0.0123779
-4.54865e-008	0.0217285
-4.54615e-008	0.022876
-4.54365e-008	0.0285156
-4.54115e-008	0.0310547
-4.53865e-008	0.0288574
-4.53615e-008	0.0353272
-4.53365e-008	0.0140625
-4.53115e-008	0.00673829
-4.52865e-008	0.0279297
-4.52615e-008	0.0236572
-4.52365e-008	0.0161133
-4.52115e-008	0.0202149
-4.51865e-008	0.0235107
-4.51615e-008	0.0297119
-4.51365e-008	0.0351074
-4.51115e-008	0.0328858
-4.50865e-008	0.0230713
-4.50615e-008	0.0134033
-4.50365e-008	0.00983887
-4.50115e-008	0.0145508
-4.49865e-008	0.0265625
-4.49615e-008	0.0262695
-4.49365e-008	0.0053711
-4.49115e-008	0.00651856
-4.48865e-008	0.0241943
-4.48615e-008	0.0206055
-4.48365e-008	0.0193359
-4.48115e-008	0.0168213
-4.47865e-008	0.0103027
-4.47615e-008	0.0174316
-4.47365e-008	0.019751
-4.47115e-008	0.0223145
-4.46865e-008	0.0246826
-4.46615e-008	0.0193359
-4.46365e-008	0.018335
-4.46115e-008	0.0140381
-4.45865e-008	0.0195068
-4.45615e-008	0.0305664
-4.45365e-008	0.0188232
-4.45115e-008	0.0161621
-4.44865e-008	0.0310059
-4.44615e-008	0.0322998
-4.44365e-008	0.0318848
-4.44115e-008	0.0327393
-4.43865e-008	0.0253418
-4.43615e-008	0.0274902
-4.43365e-008	0.0351563
-4.43115e-008	0.0266358
-4.42865e-008	0.0183594
-4.42615e-008	0.0201416
-4.42365e-008	0.0194824
-4.42115e-008	0.0202881
-4.41865e-008	0.0219971
-4.41615e-008	0.0214111
-4.41365e-008	0.0169922
-4.41115e-008	0.0134766
-4.40865e-008	0.0219971
-4.40615e-008	0.0262451
-4.40365e-008	0.0107422
-4.40115e-008	0.00529786
-4.39865e-008	0.0231201
-4.39615e-008	0.0157959
-4.39365e-008	-0.00109863
-4.39115e-008	0.0142822
-4.38865e-008	0.0205078
-4.38615e-008	0.0181885
-4.38365e-008	0.0201172
-4.38115e-008	0.00524903
-4.37865e-008	0.00869141
-4.37615e-008	0.0297852
-4.37365e-008	0.022168
-4.37115e-008	0.013208
-4.36865e-008	0.0261719
-4.36615e-008	0.0302734
-4.36365e-008	0.0275391
-4.36115e-008	0.02229
-4.35865e-008	0.0206543
-4.35615e-008	0.0244141
-4.35365e-008	0.0121582
-4.35115e-008	0.0136719
-4.34865e-008	0.0312988
-4.34615e-008	0.0358399
-4.34365e-008	0.0301025
-4.34115e-008	0.0211914
-4.33865e-008	0.0286621
-4.33615e-008	0.0302979
-4.33365e-008	0.0199463
-4.33115e-008	0.0265625
-4.32865e-008	0.0285889
-4.32615e-008	0.0128906
-4.32365e-008	0.00429688
-4.32115e-008	0.0212158
-4.31865e-008	0.0309082
-4.31615e-008	0.0186279
-4.31365e-008	0.0115234
-4.31115e-008	0.0124024
-4.30865e-008	0.0234375
-4.30615e-008	0.0266113
-4.30365e-008	0.0245117
-4.30115e-008	0.0320313
-4.29865e-008	0.0304199
-4.29615e-008	0.030542
-4.29365e-008	0.0316895
-4.29115e-008	0.0237793
-4.28865e-008	0.0171631
-4.28615e-008	0.014624
-4.28365e-008	0.0147217
-4.28115e-008	0.0178467
-4.27865e-008	0.0330078
-4.27615e-008	0.0359619
-4.27365e-008	0.0212891
-4.27115e-008	0.0205811
-4.26865e-008	0.0202881
-4.26615e-008	0.0128418
-4.26365e-008	0.00922852
-4.26115e-008	0.0143066
-4.25865e-008	0.0182373
-4.25615e-008	0.0129395
-4.25365e-008	0.0185547
-4.25115e-008	0.0187988
-4.24865e-008	0.0141357
-4.24615e-008	0.0239014
-4.24365e-008	0.0288086
-4.24115e-008	0.0284912
-4.23865e-008	0.0212647
-4.23615e-008	0.0151856
-4.23365e-008	0.0181397
-4.23115e-008	0.015918
-4.22865e-008	0.0128174
-4.22615e-008	0.0189941
-4.22365e-008	0.0307861
-4.22115e-008	0.0251709
-4.21865e-008	0.0231934
-4.21615e-008	0.0349609
-4.21365e-008	0.0247559
-4.21115e-008	0.01604
-4.20865e-008	0.0181885
-4.20615e-008	0.0186524
-4.20365e-008	0.0249512
-4.20115e-008	0.0260254
-4.19865e-008	0.0289551
-4.19615e-008	0.0362549
-4.19365e-008	0.0309326
-4.19115e-008	0.0198486
-4.18865e-008	0.018335
-4.18615e-008	0.0255371
-4.18365e-008	0.0314209
-4.18115e-008	0.0168213
-4.17865e-008	0.00297852
-4.17615e-008	0.0167236
-4.17365e-008	0.0217529
-4.17115e-008	0.0231934
-4.16865e-008	0.0280029
-4.16615e-008	0.0166748
-4.16365e-008	0.0150147
-4.16115e-008	0.0179688
-4.15865e-008	0.0242676
-4.15615e-008	0.0348633
-4.15365e-008	0.0240234
-4.15115e-008	0.0147705
-4.14865e-008	0.0238525
-4.14615e-008	0.0277588
-4.14365e-008	0.0259766
-4.14115e-008	0.0297119
-4.13865e-008	0.0317871
-4.13615e-008	0.0307617
-4.13365e-008	0.017749
-4.13115e-008	0.00742188
-4.12865e-008	0.0257568
-4.12615e-008	0.0378418
-4.12365e-008	0.0316162
-4.12115e-008	0.0224121
-4.11865e-008	0.0213623
-4.11615e-008	0.031665
-4.11365e-008	0.020752
-4.11115e-008	0.00827637
-4.10865e-008	0.0188232
-4.10615e-008	0.0214844
-4.10365e-008	0.0171143
-4.10115e-008	0.0176025
-4.09865e-008	0.015918
-4.09615e-008	0.0198242
-4.09365e-008	0.0270508
-4.09115e-008	0.0189697
-4.08865e-008	0.0140381
-4.08615e-008	0.0221191
-4.08365e-008	0.0234131
-4.08115e-008	0.0215332
-4.07865e-008	0.0216797
-4.07615e-008	0.0287842
-4.07365e-008	0.0304199
-4.07115e-008	0.0171631
-4.06865e-008	0.0148193
-4.06615e-008	0.0249756
-4.06365e-008	0.0278809
-4.06115e-008	0.020044
-4.05865e-008	0.0166992
-4.05615e-008	0.0141602
-4.05365e-008	0.00827637
-4.05115e-008	0.0194336
-4.04865e-008	0.0259766
-4.04615e-008	0.018457
-4.04365e-008	0.0173828
-4.04115e-008	0.0135742
-4.03865e-008	0.0192627
-4.03615e-008	0.0302246
-4.03365e-008	0.0241455
-4.03115e-008	0.0196289
-4.02865e-008	0.0216309
-4.02615e-008	0.029126
-4.02365e-008	0.0312744
-4.02115e-008	0.0216065
-4.01865e-008	0.0256592
-4.01615e-008	0.0239014
-4.01365e-008	0.0151367
-4.01115e-008	0.0277832
-4.00865e-008	0.0303711
-4.00615e-008	0.0172607
-4.00365e-008	0.0151367
-4.00115e-008	0.0163086
-3.99865e-008	0.0206055
-3.99615e-008	0.0241943
-3.99365e-008	0.0145996
-3.99115e-008	0.0180664
-3.98865e-008	0.0280029
-3.98615e-008	0.0224121
-3.98365e-008	0.0293701
-3.98115e-008	0.030249
-3.97865e-008	0.0247803
-3.97615e-008	0.0307617
-3.97365e-008	0.00632325
-3.97115e-008	7.45058e-009
-3.96865e-008	0.0316895
-3.96615e-008	0.0265625
-3.96365e-008	0.0149414
-3.96115e-008	0.0221924
-3.95865e-008	0.0198975
-3.95615e-008	0.024585
-3.95365e-008	0.0302979
-3.95115e-008	0.0273193
-3.94865e-008	0.0294678
-3.94615e-008	0.0273193
-3.94365e-008	0.0255127
-3.94115e-008	0.0291748
-3.93865e-008	0.0144775
-3.93615e-008	0.00305177
-3.93365e-008	0.0199707
-3.93115e-008	0.0305176
-3.92865e-008	0.034375
-3.92615e-008	0.0330078
-3.92365e-008	0.0128418
-3.92115e-008	0.0115967
-3.91865e-008	0.0240479
-3.91615e-008	0.0229981
-3.91365e-008	0.0185059
-3.91115e-008	0.0137695
-3.90865e-008	0.0174072
-3.90615e-008	0.0251221
-3.90365e-008	0.0321777
-3.90115e-008	0.0337647
-3.89865e-008	0.0227295
-3.89615e-008	0.0238037
-3.89365e-008	0.0227051
-3.89115e-008	0.016626
-3.88865e-008	0.0330566
-3.88615e-008	0.0315186
-3.88365e-008	0.0207764
-3.88115e-008	0.0262207
-3.87865e-008	0.0243897
-3.87615e-008	0.0327393
-3.87365e-008	0.0314697
-3.87115e-008	0.0189697
-3.86865e-008	0.0182373
-3.86615e-008	0.00759278
-3.86365e-008	0.00869141
-3.86115e-008	0.0097168
-3.85865e-008	0.0114258
-3.85615e-008	0.0328613
-3.85365e-008	0.0206543
-3.85115e-008	0.0097168
-3.84865e-008	0.0251465
-3.84615e-008	0.0209229
-3.84365e-008	0.0177002
-3.84115e-008	0.0158447
-3.83865e-008	0.0183106
-3.83615e-008	0.0280518
-3.83365e-008	0.0206787
-3.83115e-008	0.0264893
-3.82865e-008	0.0319092
-3.82615e-008	0.0204102
-3.82365e-008	0.0224854
-3.82115e-008	0.0222412
-3.81865e-008	0.0229004
-3.81615e-008	0.0307129
-3.81365e-008	0.0316406
-3.81115e-008	0.0303711
-3.80865e-008	0.0144775
-3.80615e-008	0.00217286
-3.80365e-008	0.0218262
-3.80115e-008	0.0307861
-3.79865e-008	0.0165039
-3.79615e-008	0.0234863
-3.79365e-008	0.0267822
-3.79115e-008	0.0113525
-3.78865e-008	0.020166
-3.78615e-008	0.0289551
-3.78365e-008	0.0131836
-3.78115e-008	0.00632325
-3.77865e-008	0.020044
-3.77615e-008	0.0248047
-3.77365e-008	0.0185791
-3.77115e-008	0.0244385
-3.76865e-008	0.0176025
-3.76615e-008	0.00876466
-3.76365e-008	0.0184815
-3.76115e-008	0.0184326
-3.75865e-008	0.0246094
-3.75615e-008	0.0307373
-3.75365e-008	0.0214356
-3.75115e-008	0.0251465
-3.74865e-008	0.0326416
-3.74615e-008	0.0290039
-3.74365e-008	0.0278076
-3.74115e-008	0.0231934
-3.73865e-008	0.0104981
-3.73615e-008	0.020166
-3.73365e-008	0.03125
-3.73115e-008	0.0165283
-3.72865e-008	0.0245117
-3.72615e-008	0.0383789
-3.72365e-008	0.0304688
-3.72115e-008	0.0317871
-3.71865e-008	0.0257324
-3.71615e-008	0.0130859
-3.71365e-008	0.0170899
-3.71115e-008	0.0291504
-3.70865e-008	0.0331543
-3.70615e-008	0.0183838
-3.70365e-008	0.0153809
-3.70115e-008	0.0260254
-3.69865e-008	0.0272949
-3.69615e-008	0.0245606
-3.69365e-008	0.0104004
-3.69115e-008	0.0105225
-3.68865e-008	0.0150879
-3.68615e-008	0.00820313
-3.68365e-008	0.0277588
-3.68115e-008	0.031665
-3.67865e-008	0.0268066
-3.67615e-008	0.037207
-3.67365e-008	0.017749
-3.67115e-008	0.0134766
-3.66865e-008	0.0282959
-3.66615e-008	0.0249024
-3.66365e-008	0.0290039
-3.66115e-008	0.0296143
-3.65865e-008	0.0318115
-3.65615e-008	0.0422608
-3.65365e-008	0.0244385
-3.65115e-008	0.0104248
-3.64865e-008	0.0217774
-3.64615e-008	0.00979005
-3.64365e-008	0.00466309
-3.64115e-008	0.0260742
-3.63865e-008	0.0233643
-3.63615e-008	0.0152588
-3.63365e-008	0.0176758
-3.63115e-008	0.0184082
-3.62865e-008	0.030127
-3.62615e-008	0.0365967
-3.62365e-008	0.025
-3.62115e-008	0.0194336
-3.61865e-008	0.0279785
-3.61615e-008	0.0192627
-3.61365e-008	-0.00671386
-3.61115e-008	-0.00239257
-3.60865e-008	0.024292
-3.60615e-008	0.0341797
-3.60365e-008	0.0213623
-3.60115e-008	0.0166016
-3.59865e-008	0.0311035
-3.59615e-008	0.0167725
-3.59365e-008	0.011377
-3.59115e-008	0.0314209
-3.58865e-008	0.0213867
-3.58615e-008	0.0230469
-3.58365e-008	0.0254395
-3.58115e-008	0.0113037
-3.57865e-008	0.0209961
-3.57615e-008	0.0309815
-3.57365e-008	0.0272705
-3.57115e-008	0.020166
-3.56865e-008	0.0178711
-3.56615e-008	0.010083
-3.56365e-008	0.00705567
-3.56115e-008	0.0228027
-3.55865e-008	0.0277588
-3.55615e-008	0.0241699
-3.55365e-008	0.0185547
-3.55115e-008	0.0137695
-3.54865e-008	0.0185303
-3.54615e-008	0.0257813
-3.54365e-008	0.0111084
-3.54115e-008	-0.00693359
-3.53865e-008	0.0214356
-3.53615e-008	0.0350098
-3.53365e-008	0.0159668
-3.53115e-008	0.0227539
-3.52865e-008	0.0168457
-3.52615e-008	0.0067627
-3.52365e-008	0.0294678
-3.52115e-008	0.0378174
-3.51865e-008	0.0317383
-3.51615e-008	0.026294
-3.51365e-008	0.0100342
-3.51115e-008	0.0140625
-3.50865e-008	0.0283447
-3.50615e-008	0.0276123
-3.50365e-008	0.0287842
-3.50115e-008	0.018457
-3.49865e-008	0.00852052
-3.49615e-008	0.0229004
-3.49365e-008	0.0277588
-3.49115e-008	0.0224121
-3.48865e-008	0.0271973
-3.48615e-008	0.0287598
-3.48365e-008	0.0199219
-3.48115e-008	0.00498048
-3.47865e-008	0.00773927
-3.47615e-008	0.0236572
-3.47365e-008	0.0188965
-3.47115e-008	0.0159912
-3.46865e-008	0.026709
-3.46615e-008	0.0250977
-3.46365e-008	0.0172119
-3.46115e-008	0.0180908
-3.45865e-008	0.0263916
-3.45615e-008	0.0284424
-3.45365e-008	0.0251953
-3.45115e-008	0.0252441
-3.44865e-008	0.018335
-3.44615e-008	0.0141602
-3.44365e-008	0.023169
-3.44115e-008	0.0220459
-3.43865e-008	0.00551759
-3.43615e-008	-0.000854485
-3.43365e-008	0.013501
-3.43115e-008	0.0284424
-3.42865e-008	0.0267822
-3.42615e-008	0.0203613
-3.42365e-008	0.0176514
-3.42115e-008	0.0146729
-3.41865e-008	0.0194092
-3.41615e-008	0.0182861
-3.41365e-008	0.0106934
-3.41115e-008	0.0190918
-3.40865e-008	0.0197998
-3.40615e-008	0.0182373
-3.40365e-008	0.0326904
-3.40115e-008	0.0345215
-3.39865e-008	0.0293701
-3.39615e-008	0.0215088
-3.39365e-008	0.0101807
-3.39115e-008	0.0126953
-3.38865e-008	0.0125244
-3.38615e-008	0.0178223
-3.38365e-008	0.0321777
-3.38115e-008	0.0236328
-3.37865e-008	0.0218262
-3.37615e-008	0.0388916
-3.37365e-008	0.0338623
-3.37115e-008	0.0163086
-3.36865e-008	0.0104736
-3.36615e-008	0.0182373
-3.36365e-008	0.026709
-3.36115e-008	0.0193604
-3.35865e-008	0.0154785
-3.35615e-008	0.0215332
-3.35365e-008	0.0173096
-3.35115e-008	0.0156494
-3.34865e-008	0.0238525
-3.34615e-008	0.022583
-3.34365e-008	0.0205322
-3.34115e-008	0.0288086
-3.33865e-008	0.0310547
-3.33615e-008	0.0375977
-3.33365e-008	0.0430664
-3.33115e-008	0.0244629
-3.32865e-008	0.00852052
-3.32615e-008	0.00854493
-3.32365e-008	0.0277588
-3.32115e-008	0.0373047
-3.31865e-008	0.0175537
-3.31615e-008	0.0168701
-3.31365e-008	0.0141113
-3.31115e-008	0.0147949
-3.30865e-008	0.0349121
-3.30615e-008	0.0187988
-3.30365e-008	0.00151368
-3.30115e-008	0.00747071
-3.29865e-008	0.00703126
-3.29615e-008	0.012085
-3.29365e-008	0.0225342
-3.29115e-008	0.0250488
-3.28865e-008	0.0217041
-3.28615e-008	0.0232422
-3.28365e-008	0.0295899
-3.28115e-008	0.0273926
-3.27865e-008	0.0122315
-3.27615e-008	0.00573731
-3.27365e-008	0.0100586
-3.27115e-008	0.0169434
-3.26865e-008	0.0281006
-3.26615e-008	0.0268799
-3.26365e-008	0.0206299
-3.26115e-008	0.0158203
-3.25865e-008	0.0196045
-3.25615e-008	0.0286377
-3.25365e-008	0.0196533
-3.25115e-008	0.0104981
-3.24865e-008	0.010376
-3.24615e-008	0.0199707
-3.24365e-008	0.0234375
-3.24115e-008	0.0124512
-3.23865e-008	0.0187744
-3.23615e-008	0.0203613
-3.23365e-008	0.00854493
-3.23115e-008	0.0202881
-3.22865e-008	0.0314697
-3.22615e-008	0.0228272
-3.22365e-008	0.025
-3.22115e-008	0.029419
-3.21865e-008	0.0302002
-3.21615e-008	0.0311524
-3.21365e-008	0.0174316
-3.21115e-008	0.0152344
-3.20865e-008	0.0225342
-3.20615e-008	0.0221436
-3.20365e-008	0.0160889
-3.20115e-008	0.005542
-3.19865e-008	0.0176514
-3.19615e-008	0.0274658
-3.19365e-008	0.01521
-3.19115e-008	0.0138184
-3.18865e-008	0.0203369
-3.18615e-008	0.023999
-3.18365e-008	0.0249756
-3.18115e-008	0.0166992
-3.17865e-008	0.00981446
-3.17615e-008	0.0229492
-3.17365e-008	0.0334473
-3.17115e-008	0.0263672
-3.16865e-008	0.0262451
-3.16615e-008	0.028125
-3.16365e-008	0.0224854
-3.16115e-008	0.0175781
-3.15865e-008	0.0218506
-3.15615e-008	0.0236084
-3.15365e-008	0.0091797
-3.15115e-008	0.012207
-3.14865e-008	0.0272461
-3.14615e-008	0.0259522
-3.14365e-008	0.0306152
-3.14115e-008	0.0316406
-3.13865e-008	0.0229248
-3.13615e-008	0.015625
-3.13365e-008	0.00512696
-3.13115e-008	0.010791
-3.12865e-008	0.0191162
-3.12615e-008	0.0166992
-3.12365e-008	0.0191406
-3.12115e-008	0.0148682
-3.11865e-008	0.0128662
-3.11615e-008	0.0150147
-3.11365e-008	0.0147949
-3.11115e-008	0.0249756
-3.10865e-008	0.0222168
-3.10615e-008	0.0161621
-3.10365e-008	0.0255127
-3.10115e-008	0.0135498
-3.09865e-008	0.00510255
-3.09615e-008	0.0201904
-3.09365e-008	0.0151123
-3.09115e-008	0.00407716
-3.08865e-008	0.00717774
-3.08615e-008	0.0185059
-3.08365e-008	0.0338135
-3.08115e-008	0.0319336
-3.07865e-008	0.0237061
-3.07615e-008	0.0269531
-3.07365e-008	0.0284668
-3.07115e-008	0.0259522
-3.06865e-008	0.0202881
-3.06615e-008	0.0120361
-3.06365e-008	0.0165772
-3.06115e-008	0.0233643
-3.05865e-008	0.02229
-3.05615e-008	0.0234131
-3.05365e-008	0.0166016
-3.05115e-008	0.0161133
-3.04865e-008	0.024585
-3.04615e-008	0.0229736
-3.04365e-008	0.0224365
-3.04115e-008	0.0223145
-3.03865e-008	0.0257324
-3.03615e-008	0.0248535
-3.03365e-008	0.0177734
-3.03115e-008	0.0271729
-3.02865e-008	0.0329346
-3.02615e-008	0.030835
-3.02365e-008	0.0283203
-3.02115e-008	0.0193115
-3.01865e-008	0.0262451
-3.01615e-008	0.0374268
-3.01365e-008	0.0275879
-3.01115e-008	0.0197998
-3.00865e-008	0.0199707
-3.00615e-008	0.0145752
-3.00365e-008	0.0225342
-3.00115e-008	0.0291748
-2.99865e-008	0.0149414
-2.99615e-008	0.0240479
-2.99365e-008	0.0374512
-2.99115e-008	0.0206543
-2.98865e-008	0.0152344
-2.98615e-008	0.0186035
-2.98365e-008	0.0150147
-2.98115e-008	0.016626
-2.97865e-008	0.020874
-2.97615e-008	0.0264404
-2.97365e-008	0.0239746
-2.97115e-008	0.0170654
-2.96865e-008	0.017041
-2.96615e-008	0.0216553
-2.96365e-008	0.0244629
-2.96115e-008	0.0157959
-2.95865e-008	0.0116455
-2.95615e-008	0.0122559
-2.95365e-008	0.0116699
-2.95115e-008	0.0273438
-2.94865e-008	0.0281738
-2.94615e-008	0.0198242
-2.94365e-008	0.0275147
-2.94115e-008	0.0194092
-2.93865e-008	0.0270996
-2.93615e-008	0.0391846
-2.93365e-008	0.0140137
-2.93115e-008	0.0159668
-2.92865e-008	0.0293701
-2.92615e-008	0.0191162
-2.92365e-008	0.0284668
-2.92115e-008	0.0335449
-2.91865e-008	0.0239746
-2.91615e-008	0.0291504
-2.91365e-008	0.0270752
-2.91115e-008	0.0213867
-2.90865e-008	0.030249
-2.90615e-008	0.0278809
-2.90365e-008	0.0179688
-2.90115e-008	0.0268799
-2.89865e-008	0.0357666
-2.89615e-008	0.0281494
-2.89365e-008	0.0229981
-2.89115e-008	0.0196289
-2.88865e-008	0.0159424
-2.88615e-008	0.0239258
-2.88365e-008	0.0311768
-2.88115e-008	0.0261963
-2.87865e-008	0.0204346
-2.87615e-008	0.0244629
-2.87365e-008	0.0191895
-2.87115e-008	0.0121582
-2.86865e-008	0.0248535
-2.86615e-008	0.0254883
-2.86365e-008	0.0194336
-2.86115e-008	0.0146973
-2.85865e-008	0.0121582
-2.85615e-008	0.0286377
-2.85365e-008	0.0273438
-2.85115e-008	0.0281738
-2.84865e-008	0.0392334
-2.84615e-008	0.0297119
-2.84365e-008	0.0336914
-2.84115e-008	0.0304199
-2.83865e-008	0.0209961
-2.83615e-008	0.0311768
-2.83365e-008	0.0224854
-2.83115e-008	0.0116211
-2.82865e-008	0.0192383
-2.82615e-008	0.0199463
-2.82365e-008	0.0143311
-2.82115e-008	0.0249512
-2.81865e-008	0.0425049
-2.81615e-008	0.0364502
-2.81365e-008	0.0139649
-2.81115e-008	0.00480958
-2.80865e-008	0.0178711
-2.80615e-008	0.0163086
-2.80365e-008	0.0109375
-2.80115e-008	0.0324707
-2.79865e-008	0.0370117
-2.79615e-008	0.0331787
-2.79365e-008	0.0323242
-2.79115e-008	0.0203613
-2.78865e-008	0.0248535
-2.78615e-008	0.0245117
-2.78365e-008	0.0145264
-2.78115e-008	0.0219238
-2.77865e-008	0.0296875
-2.77615e-008	0.0274658
-2.77365e-008	0.0165772
-2.77115e-008	0.0108887
-2.76865e-008	0.0259277
-2.76615e-008	0.0388672
-2.76365e-008	0.0304932
-2.76115e-008	0.017627
-2.75865e-008	0.0142578
-2.75615e-008	0.015625
-2.75365e-008	0.0183838
-2.75115e-008	0.0192871
-2.74865e-008	0.0158936
-2.74615e-008	0.0193359
-2.74365e-008	0.0248535
-2.74115e-008	0.0144775
-2.73865e-008	0.0102051
-2.73615e-008	0.0267578
-2.73365e-008	0.0227295
-2.73115e-008	0.00639649
-2.72865e-008	0.0197998
-2.72615e-008	0.0230225
-2.72365e-008	0.00993653
-2.72115e-008	0.0199707
-2.71865e-008	0.0324219
-2.71615e-008	0.0368164
-2.71365e-008	0.027832
-2.71115e-008	0.0141357
-2.70865e-008	0.0202149
-2.70615e-008	0.0280029
-2.70365e-008	0.0201904
-2.70115e-008	0.0076172
-2.69865e-008	0.0199951
-2.69615e-008	0.0302979
-2.69365e-008	0.0204346
-2.69115e-008	0.0327149
-2.68865e-008	0.0356201
-2.68615e-008	0.0202881
-2.68365e-008	0.0250977
-2.68115e-008	0.0248535
-2.67865e-008	0.017041
-2.67615e-008	0.0161133
-2.67365e-008	0.008667
-2.67115e-008	0.0165283
-2.66865e-008	0.029834
-2.66615e-008	0.0192871
-2.66365e-008	0.0201172
-2.66115e-008	0.022168
-2.65865e-008	0.0123779
-2.65615e-008	0.0139649
-2.65365e-008	0.0120606
-2.65115e-008	0.0185059
-2.64865e-008	0.0226318
-2.64615e-008	0.00893555
-2.64365e-008	0.0106934
-2.64115e-008	0.0187988
-2.63865e-008	0.0233643
-2.63615e-008	0.0233399
-2.63365e-008	0.0145508
-2.63115e-008	0.0162842
-2.62865e-008	0.0202393
-2.62615e-008	0.0158203
-2.62365e-008	0.0134277
-2.62115e-008	0.0163086
-2.61865e-008	0.0275879
-2.61615e-008	0.0276367
-2.61365e-008	0.0124268
-2.61115e-008	0.0175049
-2.60865e-008	0.02146
-2.60615e-008	0.0114258
-2.60365e-008	0.0246338
-2.60115e-008	0.0305176
-2.59865e-008	0.0227539
-2.59615e-008	0.0354736
-2.59365e-008	0.0379639
-2.59115e-008	0.023169
-2.58865e-008	0.0210205
-2.58615e-008	0.0286133
-2.58365e-008	0.0170899
-2.58115e-008	-0.00109863
-2.57865e-008	0.0163574
-2.57615e-008	0.0305176
-2.57365e-008	0.0165772
-2.57115e-008	0.0152832
-2.56865e-008	0.0241699
-2.56615e-008	0.0216065
-2.56365e-008	0.00312501
-2.56115e-008	0.00300294
-2.55865e-008	0.0283203
-2.55615e-008	0.0228516
-2.55365e-008	0.00705567
-2.55115e-008	0.0256592
-2.54865e-008	0.0398438
-2.54615e-008	0.0280518
-2.54365e-008	0.0183838
-2.54115e-008	0.0181397
-2.53865e-008	0.0242676
-2.53615e-008	0.0262695
-2.53365e-008	0.0147949
-2.53115e-008	0.0144531
-2.52865e-008	0.0223633
-2.52615e-008	0.0152344
-2.52365e-008	0.00778809
-2.52115e-008	0.0139893
-2.51865e-008	0.0308106
-2.51615e-008	0.0368652
-2.51365e-008	0.0165527
-2.51115e-008	0.00612794
-2.50865e-008	0.0202637
-2.50615e-008	0.0244385
-2.50365e-008	0.0227783
-2.50115e-008	0.0272217
-2.49865e-008	0.0307373
-2.49615e-008	0.0296875
-2.49365e-008	0.0134522
-2.49115e-008	0.0104981
-2.48865e-008	0.027002
-2.48615e-008	0.0204834
-2.48365e-008	0.0156006
-2.48115e-008	0.0234131
-2.47865e-008	0.0132568
-2.47615e-008	0.0135742
-2.47365e-008	0.0204102
-2.47115e-008	0.0154053
-2.46865e-008	0.0216065
-2.46615e-008	0.0219727
-2.46365e-008	0.0162109
-2.46115e-008	0.0192871
-2.45865e-008	0.0225098
-2.45615e-008	0.02146
-2.45365e-008	0.013501
-2.45115e-008	0.0151856
-2.44865e-008	0.0190186
-2.44615e-008	0.0193359
-2.44365e-008	0.0275635
-2.44115e-008	0.0302734
-2.43865e-008	0.0354004
-2.43615e-008	0.0397217
-2.43365e-008	0.0246826
-2.43115e-008	0.0140625
-2.42865e-008	0.0193115
-2.42615e-008	0.0211182
-2.42365e-008	0.0258545
-2.42115e-008	0.0321533
-2.41865e-008	0.030127
-2.41615e-008	0.0272949
-2.41365e-008	0.0177979
-2.41115e-008	0.0175049
-2.40865e-008	0.0269287
-2.40615e-008	0.0261475
-2.40365e-008	0.0256348
-2.40115e-008	0.0212891
-2.39865e-008	0.0230469
-2.39615e-008	0.0279053
-2.39365e-008	0.0208008
-2.39115e-008	0.0237549
-2.38865e-008	0.0252441
-2.38615e-008	0.0175293
-2.38365e-008	0.00891114
-2.38115e-008	0.00378419
-2.37865e-008	0.02229
-2.37615e-008	0.0322998
-2.37365e-008	0.0200195
-2.37115e-008	0.0142578
-2.36865e-008	0.0109375
-2.36615e-008	0.0196045
-2.36365e-008	0.0265625
-2.36115e-008	0.0189453
-2.35865e-008	0.0243164
-2.35615e-008	0.0154785
-2.35365e-008	-0.00996093
-2.35115e-008	7.32496e-005
-2.34865e-008	0.0236572
-2.34615e-008	0.0209717
-2.34365e-008	0.0211426
-2.34115e-008	0.0292969
-2.33865e-008	0.0237305
-2.33615e-008	0.0262207
-2.33365e-008	0.0280762
-2.33115e-008	0.0209473
-2.32865e-008	0.0254639
-2.32615e-008	0.0269775
-2.32365e-008	0.0293945
-2.32115e-008	0.0298828
-2.31865e-008	0.0206055
-2.31615e-008	0.0191406
-2.31365e-008	0.0245117
-2.31115e-008	0.0323731
-2.30865e-008	0.0143555
-2.30615e-008	-0.00239257
-2.30365e-008	0.0271973
-2.30115e-008	0.034082
-2.29865e-008	0.00795899
-2.29615e-008	0.00915528
-2.29365e-008	0.0252686
-2.29115e-008	0.0292969
-2.28865e-008	0.0246826
-2.28615e-008	0.0240234
-2.28365e-008	0.0242432
-2.28115e-008	0.0215088
-2.27865e-008	0.0282959
-2.27615e-008	0.0240967
-2.27365e-008	0.00468751
-2.27115e-008	0.00925294
-2.26865e-008	0.02229
-2.26615e-008	0.023999
-2.26365e-008	0.0311768
-2.26115e-008	0.037085
-2.25865e-008	0.0295166
-2.25615e-008	0.0175293
-2.25365e-008	0.0230225
-2.25115e-008	0.0245361
-2.24865e-008	0.00834962
-2.24615e-008	0.00664063
-2.24365e-008	0.0067627
-2.24115e-008	0.00729981
-2.23865e-008	0.0263672
-2.23615e-008	0.0314209
-2.23365e-008	0.0215332
-2.23115e-008	0.0250733
-2.22865e-008	0.0213867
-2.22615e-008	0.0181152
-2.22365e-008	0.0355469
-2.22115e-008	0.0349121
-2.21865e-008	0.0281006
-2.21615e-008	0.0331543
-2.21365e-008	0.0220703
-2.21115e-008	0.0174561
-2.20865e-008	0.0255127
-2.20615e-008	0.0267334
-2.20365e-008	0.0246582
-2.20115e-008	0.017041
-2.19865e-008	0.0228272
-2.19615e-008	0.0254639
-2.19365e-008	0.0090088
-2.19115e-008	0.0186279
-2.18865e-008	0.0266358
-2.18615e-008	0.0183594
-2.18365e-008	0.0246582
-2.18115e-008	0.018335
-2.17865e-008	0.0165527
-2.17615e-008	0.0319824
-2.17365e-008	0.0312744
-2.17115e-008	0.0213135
-2.16865e-008	0.0146729
-2.16615e-008	0.01604
-2.16365e-008	0.026294
-2.16115e-008	0.0158447
-2.15865e-008	-0.00493163
-2.15615e-008	0.0103516
-2.15365e-008	0.0286377
-2.15115e-008	0.0182617
-2.14865e-008	0.00891114
-2.14615e-008	0.0171387
-2.14365e-008	0.033667
-2.14115e-008	0.0278565
-2.13865e-008	0.0149902
-2.13615e-008	0.0214844
-2.13365e-008	0.0160156
-2.13115e-008	0.0111816
-2.12865e-008	0.0232666
-2.12615e-008	0.0231934
-2.12365e-008	0.027002
-2.12115e-008	0.0319824
-2.11865e-008	0.0241699
-2.11615e-008	0.0211426
-2.11365e-008	0.00454102
-2.11115e-008	-0.000927727
-2.10865e-008	0.0207764
-2.10615e-008	0.0240234
-2.10365e-008	0.0256104
-2.10115e-008	0.0258057
-2.09865e-008	0.014624
-2.09615e-008	0.0268066
-2.09365e-008	0.041919
-2.09115e-008	0.0375488
-2.08865e-008	0.0253662
-2.08615e-008	0.0137695
-2.08365e-008	0.0211914
-2.08115e-008	0.0322998
-2.07865e-008	0.0248535
-2.07615e-008	0.0161865
-2.07365e-008	0.0120117
-2.07115e-008	0.014624
-2.06865e-008	0.0222168
-2.06615e-008	0.0239258
-2.06365e-008	0.0241455
-2.06115e-008	0.0108154
-2.05865e-008	0.00322266
-2.05615e-008	0.0220703
-2.05365e-008	0.0224609
-2.05115e-008	0.0112549
-2.04865e-008	0.0173096
-2.04615e-008	0.0196777
-2.04365e-008	0.0175293
-2.04115e-008	0.0154053
-2.03865e-008	0.0208252
-2.03615e-008	0.0302734
-2.03365e-008	0.0222656
-2.03115e-008	0.0143799
-2.02865e-008	0.0177979
-2.02615e-008	0.0188477
-2.02365e-008	0.0154053
-2.02115e-008	0.0118408
-2.01865e-008	0.0209961
-2.01615e-008	0.0297608
-2.01365e-008	0.0143799
-2.01115e-008	0.00593262
-2.00865e-008	0.0169922
-2.00615e-008	0.0224365
-2.00365e-008	0.0280029
-2.00115e-008	0.0258789
-1.99865e-008	0.0254395
-1.99615e-008	0.0302979
-1.99365e-008	0.0090088
-1.99115e-008	0.0118164
-1.98865e-008	0.0389649
-1.98615e-008	0.032666
-1.98365e-008	0.0291992
-1.98115e-008	0.0341797
-1.97865e-008	0.0272461
-1.97615e-008	0.0154785
-1.97365e-008	0.00319825
-1.97115e-008	0.0138184
-1.96865e-008	0.0257568
-1.96615e-008	0.0221191
-1.96365e-008	0.0266358
-1.96115e-008	0.0171143
-1.95865e-008	0.00791016
-1.95615e-008	0.0228027
-1.95365e-008	0.022168
-1.95115e-008	0.0181885
-1.94865e-008	0.0135254
-1.94615e-008	-0.0034912
-1.94365e-008	0.00895997
-1.94115e-008	0.0184082
-1.93865e-008	0.00791016
-1.93615e-008	0.0208984
-1.93365e-008	0.0255127
-1.93115e-008	0.0195801
-1.92865e-008	0.022876
-1.92615e-008	0.0164551
-1.92365e-008	0.0163574
-1.92115e-008	0.0202637
-1.91865e-008	0.0229736
-1.91615e-008	0.0236328
-1.91365e-008	0.00717774
-1.91115e-008	0.00461427
-1.90865e-008	0.0220459
-1.90615e-008	0.0310791
-1.90365e-008	0.0200195
-1.90115e-008	0.00603028
-1.89865e-008	0.0190918
-1.89615e-008	0.030542
-1.89365e-008	0.0235596