# LECROYWM813Zi	51496	Waveform
# Segments	1	SegmentSize	4002
# Segment	TrigTime	TimeSinceSegment1
# #1	30-Nov-2018 17:26:06	0                 
# Time	Ampl
-5.001075e-008	-0.0029541
-4.998575e-008	-0.000415035
-4.996075e-008	0.00388184
-4.993575e-008	-0.00319824
-4.991075e-008	-0.000732418
-4.988575e-008	0.00776368
-4.986075e-008	0.000683597
-4.983575e-008	-0.000134274
-4.981075e-008	0.00460205
-4.978575e-008	0.00258789
-4.976075e-008	0.00102539
-4.973575e-008	-0.000122067
-4.971075e-008	0.00158692
-4.968575e-008	0.00151368
-4.966075e-008	-0.00300293
-4.963575e-008	-0.00528564
-4.961075e-008	-0.00820312
-4.958575e-008	-0.00249023
-4.956075e-008	0.00581055
-4.953575e-008	-0.00285644
-4.951075e-008	-0.006604
-4.948575e-008	-0.00135498
-4.946075e-008	-0.00731201
-4.943575e-008	-0.00532226
-4.941075e-008	0.00452881
-4.938575e-008	0.00245362
-4.936075e-008	-0.000976559
-4.933575e-008	-0.00378418
-4.931075e-008	-0.00102539
-4.928575e-008	0.00494385
-4.926075e-008	0.000732426
-4.923575e-008	0.00249024
-4.921075e-008	0.00107422
-4.918575e-008	-0.0071289
-4.916075e-008	-0.00478515
-4.913575e-008	-0.0053955
-4.911075e-008	-0.00224609
-4.908575e-008	0.00118409
-4.906075e-008	-0.00496826
-4.903575e-008	-0.00112304
-4.901075e-008	0.000781254
-4.898575e-008	-0.00531005
-4.896075e-008	-0.00335693
-4.893575e-008	-0.000537106
-4.891075e-008	0.000842289
-4.888575e-008	0.000476078
-4.886075e-008	-0.00413818
-4.883575e-008	-0.00441894
-4.881075e-008	-0.0015625
-4.878575e-008	-4.88244e-005
-4.876075e-008	-0.000793453
-4.873575e-008	-0.00212402
-4.871075e-008	-0.00137939
-4.868575e-008	0.000512699
-4.866075e-008	0.00297852
-4.863575e-008	0.00556641
-4.861075e-008	0.00754395
-4.858575e-008	0.00568848
-4.856075e-008	-0.000854488
-4.853575e-008	-0.0102051
-4.851075e-008	-0.0113281
-4.848575e-008	-0.000976559
-4.846075e-008	0.00323487
-4.843575e-008	-0.000915524
-4.841075e-008	-0.00336914
-4.838575e-008	-0.000756832
-4.836075e-008	0.000927738
-4.833575e-008	-0.00343017
-4.831075e-008	-0.00616455
-4.828575e-008	-0.00311279
-4.826075e-008	0.00299073
-4.823575e-008	0.00609131
-4.821075e-008	0.00118409
-4.818575e-008	-0.00581054
-4.816075e-008	-0.00207519
-4.813575e-008	0.00598145
-4.811075e-008	0.00523682
-4.808575e-008	0.00178223
-4.806075e-008	-0.00284423
-4.803575e-008	-0.00604248
-4.801075e-008	-0.00197754
-4.798575e-008	0.00292969
-4.796075e-008	0.00272217
-4.793575e-008	-0.000402828
-4.791075e-008	-0.00291748
-4.788575e-008	-0.00184326
-4.786075e-008	0.00335694
-4.783575e-008	0.00229493
-4.781075e-008	-0.0036499
-4.778575e-008	-0.000329586
-4.776075e-008	0.00174561
-4.773575e-008	-2.44103e-005
-4.771075e-008	0.00786133
-4.768575e-008	0.00611573
-4.766075e-008	-0.00423584
-4.763575e-008	-6.10314e-005
-4.761075e-008	0.000720219
-4.758575e-008	-0.00231933
-4.756075e-008	-1.22033e-005
-4.753575e-008	-0.0053833
-4.751075e-008	-0.00257568
-4.748575e-008	0.00549317
-4.746075e-008	-0.00112304
-4.743575e-008	-0.00209961
-4.741075e-008	0.00461426
-4.738575e-008	0.00333252
-4.736075e-008	0.00184327
-4.733575e-008	8.54529e-005
-4.731075e-008	0.000866703
-4.728575e-008	0.000415043
-4.726075e-008	-0.0106201
-4.723575e-008	-0.00389404
-4.721075e-008	0.00985108
-4.718575e-008	0.00219727
-4.716075e-008	-0.000634762
-4.713575e-008	0.00087891
-4.711075e-008	-0.00349121
-4.708575e-008	-0.00175781
-4.706075e-008	-0.00163574
-4.703575e-008	-0.00198974
-4.701075e-008	0.00324707
-4.698575e-008	0.00258789
-4.696075e-008	-6.10314e-005
-4.693575e-008	0.000244144
-4.691075e-008	-0.00507812
-4.688575e-008	-0.00390625
-4.686075e-008	0.00406495
-4.683575e-008	7.32459e-005
-4.681075e-008	-0.00584716
-4.678575e-008	-0.00421142
-4.676075e-008	-0.00194091
-4.673575e-008	-0.00131836
-4.671075e-008	-0.0039917
-4.668575e-008	-0.00606689
-4.666075e-008	-0.00344238
-4.663575e-008	-0.0015747
-4.661075e-008	0.00100098
-4.658575e-008	0.0055542
-4.656075e-008	0.00257569
-4.653575e-008	0.00030518
-4.651075e-008	0.00339356
-4.648575e-008	-0.00294189
-4.646075e-008	-0.00665283
-4.643575e-008	-0.00180664
-4.641075e-008	-0.00413818
-4.638575e-008	-0.00552978
-4.636075e-008	-0.00297851
-4.633575e-008	0.000476078
-4.631075e-008	0.000183109
-4.628575e-008	-0.00253906
-4.626075e-008	0.000891117
-4.623575e-008	-0.0060913
-4.621075e-008	-0.00740966
-4.618575e-008	0.00424805
-4.616075e-008	-0.00213623
-4.613575e-008	-0.00727539
-4.611075e-008	-0.00023193
-4.608575e-008	0.000744633
-4.606075e-008	0.000708012
-4.603575e-008	-0.0015625
-4.601075e-008	-0.00314941
-4.598575e-008	0.00375977
-4.596075e-008	0.00563965
-4.593575e-008	0.0024292
-4.591075e-008	-0.000366207
-4.588575e-008	-0.00178222
-4.586075e-008	0.00281983
-4.583575e-008	-0.00281982
-4.581075e-008	-0.00930175
-4.578575e-008	0.00164795
-4.576075e-008	0.00238037
-4.573575e-008	-0.00549316
-4.571075e-008	-0.00412597
-4.568575e-008	-0.00329589
-4.566075e-008	0.000463871
-4.563575e-008	0.00119629
-4.561075e-008	-0.00177002
-4.558575e-008	0.00280762
-4.556075e-008	-0.00288086
-4.553575e-008	-0.00961914
-4.551075e-008	0.00269776
-4.548575e-008	0.0081543
-4.546075e-008	-0.0013916
-4.543575e-008	-0.00665283
-4.541075e-008	-0.00657959
-4.538575e-008	-0.00180664
-4.536075e-008	0.00609131
-4.533575e-008	0.00357666
-4.531075e-008	-0.00550537
-4.528575e-008	-0.00697021
-4.526075e-008	-0.000817867
-4.523575e-008	0.00306397
-4.521075e-008	0.000292972
-4.518575e-008	0.00280762
-4.516075e-008	0.0039795
-4.513575e-008	-0.00290527
-4.511075e-008	0.00352784
-4.508575e-008	0.00704346
-4.506075e-008	-0.00124511
-4.503575e-008	0.00111084
-4.501075e-008	0.000744633
-4.498575e-008	0.00124512
-4.496075e-008	0.00493164
-4.493575e-008	-0.000549313
-4.491075e-008	-0.000537106
-4.488575e-008	-0.00260009
-4.486075e-008	-0.00775146
-4.483575e-008	-0.006604
-4.481075e-008	-0.00860595
-4.478575e-008	-0.00335693
-4.476075e-008	0.00374756
-4.473575e-008	-0.00220947
-4.471075e-008	-0.00385742
-4.468575e-008	1.22108e-005
-4.466075e-008	-0.00450439
-4.463575e-008	-0.0101074
-4.461075e-008	-0.00728759
-4.458575e-008	-0.00327148
-4.456075e-008	-0.00150146
-4.453575e-008	0.00146485
-4.451075e-008	0.00201416
-4.448575e-008	1.22108e-005
-4.446075e-008	-0.00378418
-4.443575e-008	-0.00323486
-4.441075e-008	0.00128174
-4.438575e-008	0.00371094
-4.436075e-008	0.00731202
-4.433575e-008	0.00148926
-4.431075e-008	-0.00217285
-4.428575e-008	0.00738526
-4.426075e-008	0.00162354
-4.423575e-008	-0.00535888
-4.421075e-008	-0.00120849
-4.418575e-008	-0.00520019
-4.416075e-008	-0.000622555
-4.413575e-008	0.00596924
-4.411075e-008	-0.00115966
-4.408575e-008	0.000244144
-4.406075e-008	0.00567627
-4.403575e-008	-0.000817867
-4.401075e-008	-0.00585937
-4.398575e-008	-0.00284423
-4.396075e-008	0.000781254
-4.393575e-008	0.00167237
-4.391075e-008	-0.00205078
-4.388575e-008	-0.00231933
-4.386075e-008	0.000378422
-4.383575e-008	-0.00218505
-4.381075e-008	-0.00202636
-4.378575e-008	0.00164795
-4.376075e-008	-0.000830074
-4.373575e-008	-0.00682373
-4.371075e-008	-0.00418701
-4.368575e-008	0.00134278
-4.366075e-008	0.00318604
-4.363575e-008	0.00233155
-4.361075e-008	-0.00572509
-4.358575e-008	-0.00577392
-4.356075e-008	0.0015503
-4.353575e-008	7.32459e-005
-4.351075e-008	0.00125733
-4.348575e-008	0.00548096
-4.346075e-008	-0.00178222
-4.343575e-008	-0.00679931
-4.341075e-008	0.00042725
-4.338575e-008	0.00219727
-4.336075e-008	0.00168457
-4.333575e-008	0.0053711
-4.331075e-008	0.00394287
-4.328575e-008	0.00146485
-4.326075e-008	-0.000354
-4.323575e-008	-0.00270996
-4.321075e-008	0.000598148
-4.318575e-008	0.00146485
-4.316075e-008	-0.00574951
-4.313575e-008	-0.00231933
-4.311075e-008	0.00529786
-4.308575e-008	-0.000964352
-4.306075e-008	-0.00482177
-4.303575e-008	-0.00366211
-4.301075e-008	-0.00615234
-4.298575e-008	-0.00240478
-4.296075e-008	0.0045044
-4.293575e-008	-0.000769039
-4.291075e-008	-0.00662841
-4.288575e-008	0.00362549
-4.286075e-008	0.00799561
-4.283575e-008	0.0022461
-4.281075e-008	0.00130616
-4.278575e-008	-0.0038208
-4.276075e-008	-0.00604248
-4.273575e-008	-0.000756832
-4.271075e-008	-0.000378414
-4.268575e-008	-0.00207519
-4.266075e-008	0.000366215
-4.263575e-008	0.000195316
-4.261075e-008	-0.00460205
-4.258575e-008	-0.00716552
-4.256075e-008	-0.00550537
-4.253575e-008	0.00332032
-4.251075e-008	0.00831299
-4.248575e-008	0.00106202
-4.246075e-008	-0.00252685
-4.243575e-008	0.00340577
-4.241075e-008	0.00283204
-4.238575e-008	-0.00310058
-4.236075e-008	0.00338135
-4.233575e-008	0.00418702
-4.231075e-008	-0.0038208
-4.228575e-008	0.00252686
-4.226075e-008	0.00500489
-4.223575e-008	0.000744633
-4.221075e-008	0.00303955
-4.218575e-008	-2.44103e-005
-4.216075e-008	-0.00327148
-4.213575e-008	0.000158695
-4.211075e-008	-0.000671383
-4.208575e-008	-0.00223388
-4.206075e-008	-0.000183102
-4.203575e-008	-0.00231933
-4.201075e-008	-0.00236816
-4.198575e-008	0.00153809
-4.196075e-008	-6.10314e-005
-4.193575e-008	-0.00247802
-4.191075e-008	0.000830082
-4.188575e-008	0.00229493
-4.186075e-008	-0.00245361
-4.183575e-008	-0.00489502
-4.181075e-008	-0.00527343
-4.178575e-008	-0.00335693
-4.176075e-008	0.00396729
-4.173575e-008	0.00452881
-4.171075e-008	0.000354008
-4.168575e-008	0.00478516
-4.166075e-008	0.00432129
-4.163575e-008	-0.00023193
-4.161075e-008	0.00340577
-4.158575e-008	0.00438233
-4.156075e-008	0.00247803
-4.153575e-008	-0.00308838
-4.151075e-008	-0.00277099
-4.148575e-008	0.00406495
-4.146075e-008	-0.000842281
-4.143575e-008	-0.000927731
-4.141075e-008	0.000268558
-4.138575e-008	-0.00407714
-4.136075e-008	0.00290528
-4.133575e-008	0.00528565
-4.131075e-008	-0.00100097
-4.128575e-008	-1.22033e-005
-4.126075e-008	0.0022461
-4.123575e-008	0.00181885
-4.121075e-008	0.00266114
-4.118575e-008	0.00261231
-4.116075e-008	0.00108643
-4.113575e-008	0.00159912
-4.111075e-008	0.00445557
-4.108575e-008	0.000769047
-4.106075e-008	-0.00631103
-4.103575e-008	0.00087891
-4.101075e-008	0.00697022
-4.098575e-008	-0.000549313
-4.096075e-008	-0.00123291
-4.093575e-008	-0.00207519
-4.091075e-008	-0.00358886
-4.088575e-008	0.00316162
-4.086075e-008	0.00288086
-4.083575e-008	-0.00186767
-4.081075e-008	-0.000488278
-4.078575e-008	0.00240479
-4.076075e-008	-0.00196533
-4.073575e-008	-0.0029663
-4.071075e-008	0.00087891
-4.068575e-008	-0.000207516
-4.066075e-008	0.00178223
-4.063575e-008	0.00357666
-4.061075e-008	0.00197754
-4.058575e-008	0.00163575
-4.056075e-008	0.00396729
-4.053575e-008	0.00222168
-4.051075e-008	-0.000878903
-4.048575e-008	0.00179444
-4.046075e-008	-7.32385e-005
-4.043575e-008	-0.00433349
-4.041075e-008	-0.0059082
-4.038575e-008	-0.00152588
-4.036075e-008	0.00507813
-4.033575e-008	0.00480957
-4.031075e-008	0.00402832
-4.028575e-008	0.0020752
-4.026075e-008	0.00177002
-4.023575e-008	0.00212403
-4.021075e-008	-0.00350341
-4.018575e-008	-0.00366211
-4.016075e-008	-0.000146481
-4.013575e-008	0.00164795
-4.011075e-008	0.00417481
-4.008575e-008	0.00211182
-4.006075e-008	-0.00123291
-4.003575e-008	-0.00257568
-4.001075e-008	0.000341801
-3.998575e-008	0.00480957
-3.996075e-008	0.00180664
-3.993575e-008	0.0013794
-3.991075e-008	0.00471192
-3.988575e-008	0.000659183
-3.986075e-008	-0.00325927
-3.983575e-008	0.000732426
-3.981075e-008	0.00270996
-3.978575e-008	-0.00245361
-3.976075e-008	-0.00327148
-3.973575e-008	0.000476078
-3.971075e-008	0.00135498
-3.968575e-008	-0.000463863
-3.966075e-008	0.000463871
-3.963575e-008	0.00437012
-3.961075e-008	0.00390625
-3.958575e-008	0.00405274
-3.956075e-008	0.00273438
-3.953575e-008	-0.00639648
-3.951075e-008	-0.00914306
-3.948575e-008	-0.00411377
-3.946075e-008	-0.00456543
-3.943575e-008	-0.00385742
-3.941075e-008	-0.00220947
-3.938575e-008	-0.00408935
-3.936075e-008	0.00347901
-3.933575e-008	0.00389405
-3.931075e-008	-0.00681152
-3.928575e-008	-0.00368652
-3.926075e-008	0.00228272
-3.923575e-008	0.00214844
-3.921075e-008	-0.00301513
-3.918575e-008	-0.00769043
-3.916075e-008	0.00134278
-3.913575e-008	0.00516358
-3.911075e-008	-0.00168457
-3.908575e-008	-0.00192871
-3.906075e-008	-0.0045166
-3.903575e-008	-0.00455322
-3.901075e-008	0.00187989
-3.898575e-008	0.00187989
-3.896075e-008	0.00455323
-3.893575e-008	0.00522461
-3.891075e-008	-0.00117187
-3.888575e-008	-0.0015747
-3.886075e-008	-0.00213623
-3.883575e-008	-0.00455322
-3.881075e-008	-0.00131836
-3.878575e-008	0.00417481
-3.876075e-008	0.00865479
-3.873575e-008	0.00668946
-3.871075e-008	0.00126953
-3.868575e-008	-0.000927731
-3.866075e-008	0.000781254
-3.863575e-008	0.00357666
-3.861075e-008	-0.00195312
-3.858575e-008	-0.00283203
-3.856075e-008	0.00256348
-3.853575e-008	-0.00150146
-3.851075e-008	-0.00531005
-3.848575e-008	-0.00290527
-3.846075e-008	-0.00307617
-3.843575e-008	-0.00587158
-3.841075e-008	-6.10314e-005
-3.838575e-008	0.00195313
-3.836075e-008	-0.00245361
-3.833575e-008	8.54529e-005
-3.831075e-008	-0.00371093
-3.828575e-008	-0.00155029
-3.826075e-008	0.00644532
-3.823575e-008	-0.00010986
-3.821075e-008	-0.000354
-3.818575e-008	0.00310059
-3.816075e-008	-0.00356445
-3.813575e-008	-0.00500488
-3.811075e-008	0.00195313
-3.808575e-008	0.00692139
-3.806075e-008	0.00161133
-3.803575e-008	-0.00583496
-3.801075e-008	-0.00577392
-3.798575e-008	-0.000524899
-3.796075e-008	0.00249024
-3.793575e-008	-0.00183105
-3.791075e-008	0.000524906
-3.788575e-008	0.00443116
-3.786075e-008	-0.000781246
-3.783575e-008	0.000195316
-3.781075e-008	0.000512699
-3.778575e-008	-1.22033e-005
-3.776075e-008	0.00427246
-3.773575e-008	0.00021973
-3.771075e-008	0.00178223
-3.768575e-008	0.00413819
-3.766075e-008	-0.00113525
-3.763575e-008	0.00423584
-3.761075e-008	0.00469971
-3.758575e-008	0.000317387
-3.756075e-008	0.00223389
-3.753575e-008	-0.000183102
-3.751075e-008	-0.0043457
-3.748575e-008	-0.00666504
-3.746075e-008	0.00054932
-3.743575e-008	0.00421143
-3.741075e-008	-0.000646969
-3.738575e-008	0.00720215
-3.736075e-008	0.00770264
-3.733575e-008	-0.00224609
-3.731075e-008	-0.00394287
-3.728575e-008	-0.00494384
-3.726075e-008	-0.00236816
-3.723575e-008	0.00321045
-3.721075e-008	-0.000830074
-3.718575e-008	-0.00756836
-3.716075e-008	-0.00543213
-3.713575e-008	-0.000842281
-3.711075e-008	0.00261231
-3.708575e-008	0.00345459
-3.706075e-008	0.00228272
-3.703575e-008	0.00444336
-3.701075e-008	0.00571289
-3.698575e-008	0.0057251
-3.696075e-008	0.00408936
-3.693575e-008	0.00142823
-3.691075e-008	0.00366211
-3.688575e-008	0.0038208
-3.686075e-008	0.00102539
-3.683575e-008	-0.00192871
-3.681075e-008	-0.00523681
-3.678575e-008	-0.000268551
-3.676075e-008	0.00270996
-3.673575e-008	-0.00336914
-3.671075e-008	-0.00739746
-3.668575e-008	-0.00651855
-3.666075e-008	0.000939945
-3.663575e-008	0.00563965
-3.661075e-008	0.00140381
-3.658575e-008	-0.000512692
-3.656075e-008	0.000537113
-3.653575e-008	-0.00284423
-3.651075e-008	-0.00571289
-3.648575e-008	-0.00168457
-3.646075e-008	0.000170902
-3.643575e-008	0.00230713
-3.641075e-008	0.00775147
-3.638575e-008	0.00505371
-3.636075e-008	0.00130616
-3.633575e-008	0.00054932
-3.631075e-008	-0.0029541
-3.628575e-008	-0.00471191
-3.626075e-008	-0.0017456
-3.623575e-008	-0.000463863
-3.621075e-008	-0.0046875
-3.618575e-008	-0.00406494
-3.616075e-008	0.00119629
-3.613575e-008	6.10389e-005
-3.611075e-008	-0.00354004
-3.608575e-008	-0.00426025
-3.606075e-008	-0.003479
-3.603575e-008	0.000744633
-3.601075e-008	0.00075684
-3.598575e-008	-0.00396728
-3.596075e-008	-0.00720214
-3.593575e-008	-0.00991211
-3.591075e-008	-0.00654297
-3.588575e-008	-0.0038208
-3.586075e-008	-0.000695797
-3.583575e-008	0.00139161
-3.581075e-008	-0.00443115
-3.578575e-008	-0.00480957
-3.576075e-008	-0.00467529
-3.573575e-008	-0.00117187
-3.571075e-008	0.00784912
-3.568575e-008	0.0045044
-3.566075e-008	-0.00286865
-3.563575e-008	-0.00166015
-3.561075e-008	-0.000195309
-3.558575e-008	0.000573734
-3.556075e-008	0.00590821
-3.553575e-008	0.00441895
-3.551075e-008	-0.00120849
-3.548575e-008	0.00275879
-3.546075e-008	0.0020752
-3.543575e-008	-0.00531005
-3.541075e-008	-0.00429687
-3.538575e-008	-0.00153808
-3.536075e-008	-0.000439449
-3.533575e-008	0.000512699
-3.531075e-008	-0.00183105
-3.528575e-008	-0.00529785
-3.526075e-008	-0.00870361
-3.523575e-008	-0.00589599
-3.521075e-008	-0.000439449
-3.518575e-008	0.00101319
-3.516075e-008	0.000500492
-3.513575e-008	-0.00141601
-3.511075e-008	9.766e-005
-3.508575e-008	0.00163575
-3.506075e-008	0.000830082
-3.503575e-008	-0.00190429
-3.501075e-008	-0.00484619
-3.498575e-008	0.000439457
-3.496075e-008	0.000134281
-3.493575e-008	-0.00758056
-3.491075e-008	-0.000634762
-3.488575e-008	0.005542
-3.486075e-008	-0.00375976
-3.483575e-008	-0.00327148
-3.481075e-008	0.00625
-3.478575e-008	0.000805668
-3.476075e-008	-0.0078125
-3.473575e-008	-0.00357666
-3.471075e-008	0.00356446
-3.468575e-008	0.0067627
-3.466075e-008	0.00513916
-3.463575e-008	-0.000537106
-3.461075e-008	-0.00649414
-3.458575e-008	-0.00488281
-3.456075e-008	0.00358887
-3.453575e-008	0.00301514
-3.451075e-008	-0.000622555
-3.448575e-008	-0.000207516
-3.446075e-008	-0.00571289
-3.443575e-008	-0.00683593
-3.441075e-008	0.00275879
-3.438575e-008	0.00848389
-3.436075e-008	0.00419922
-3.433575e-008	-0.0029541
-3.431075e-008	-0.00472412
-3.428575e-008	-0.00151367
-3.426075e-008	-0.00214843
-3.423575e-008	-0.006604
-3.421075e-008	-0.00162353
-3.418575e-008	0.0046753
-3.416075e-008	-0.00345459
-3.413575e-008	-0.00620117
-3.411075e-008	0.00203858
-3.408575e-008	-0.00273437
-3.406075e-008	-0.0090332
-3.403575e-008	-0.0027832
-3.401075e-008	0.000695805
-3.398575e-008	0.00150147
-3.396075e-008	-0.00133056
-3.393575e-008	-0.00637207
-3.391075e-008	-0.00361328
-3.388575e-008	-0.00288086
-3.386075e-008	-0.00627441
-3.383575e-008	-0.00751953
-3.381075e-008	-0.00344238
-3.378575e-008	0.00355225
-3.376075e-008	0.0010376
-3.373575e-008	-0.00614013
-3.371075e-008	-0.00804443
-3.368575e-008	-0.00524902
-3.366075e-008	0.00253907
-3.363575e-008	0.00653077
-3.361075e-008	0.00251465
-3.358575e-008	0.00264893
-3.356075e-008	0.0050293
-3.353575e-008	0.00075684
-3.351075e-008	-0.00474853
-3.348575e-008	-0.00908203
-3.346075e-008	-0.00639648
-3.343575e-008	0.00335694
-3.341075e-008	0.00552979
-3.338575e-008	0.00181885
-3.336075e-008	0.000354008
-3.333575e-008	-0.000549313
-3.331075e-008	-0.000927731
-3.328575e-008	0.000805668
-3.326075e-008	-0.00231933
-3.323575e-008	-0.00441894
-3.321075e-008	0.00111084
-3.318575e-008	-0.00112304
-3.316075e-008	-0.00480957
-3.313575e-008	-0.00623779
-3.311075e-008	-0.0105591
-3.308575e-008	-0.00522461
-3.306075e-008	-0.00246582
-3.303575e-008	-0.00603027
-3.301075e-008	-0.00281982
-3.298575e-008	8.54529e-005
-3.296075e-008	0.00114746
-3.293575e-008	-0.00266113
-3.291075e-008	-0.00817871
-3.288575e-008	-0.0048706
-3.286075e-008	-0.000170895
-3.283575e-008	0.00128174
-3.281075e-008	-0.000622555
-3.278575e-008	-0.00395507
-3.276075e-008	-0.00162353
-3.273575e-008	0.00395508
-3.271075e-008	0.00559082
-3.268575e-008	0.00286866
-3.266075e-008	-0.000122067
-3.263575e-008	-0.00268554
-3.261075e-008	-0.00223388
-3.258575e-008	0.00358887
-3.256075e-008	0.00479737
-3.253575e-008	-0.00114746
-3.251075e-008	0.000341801
-3.248575e-008	0.00428467
-3.246075e-008	-0.000964352
-3.243575e-008	0.000292972
-3.241075e-008	0.00406495
-3.238575e-008	-0.00239257
-3.236075e-008	-0.00274658
-3.233575e-008	-0.00197754
-3.231075e-008	-0.00708007
-3.228575e-008	-0.00440673
-3.226075e-008	-0.000976559
-3.223575e-008	0.000952152
-3.221075e-008	-0.000817867
-3.218575e-008	-0.0067749
-3.216075e-008	0.000598148
-3.213575e-008	0.00438233
-3.211075e-008	-0.000500485
-3.208575e-008	0.000695805
-3.206075e-008	0.0012085
-3.203575e-008	0.00126953
-3.201075e-008	-0.00467529
-3.198575e-008	-0.00770263
-3.196075e-008	-0.000671383
-3.193575e-008	0.000341801
-3.191075e-008	-0.00239257
-3.188575e-008	-0.00397949
-3.186075e-008	-0.00131836
-3.183575e-008	0.00322266
-3.181075e-008	-0.00195312
-3.178575e-008	-0.00263672
-3.176075e-008	0.00563965
-3.173575e-008	0.00268555
-3.171075e-008	-0.000866696
-3.168575e-008	0.00122071
-3.166075e-008	-0.00023193
-3.163575e-008	-0.00056152
-3.161075e-008	-0.00133056
-3.158575e-008	-0.00270996
-3.156075e-008	-0.00186767
-3.153575e-008	0.00228272
-3.151075e-008	0.00301514
-3.148575e-008	-0.00322265
-3.146075e-008	-0.00466308
-3.143575e-008	0.000842289
-3.141075e-008	0.005542
-3.138575e-008	0.00616455
-3.136075e-008	0.0017212
-3.133575e-008	-0.00566406
-3.131075e-008	-0.00493164
-3.128575e-008	0.00125733
-3.126075e-008	-0.000158688
-3.123575e-008	-0.00235595
-3.121075e-008	0.000695805
-3.118575e-008	-0.000549313
-3.116075e-008	-0.00467529
-3.113575e-008	-0.00413818
-3.111075e-008	-0.00338134
-3.108575e-008	0.000952152
-3.106075e-008	0.0060669
-3.103575e-008	-0.00056152
-3.101075e-008	-0.00642089
-3.098575e-008	-0.0024292
-3.096075e-008	-0.0045166
-3.093575e-008	-0.00843505
-3.091075e-008	-0.00101318
-3.088575e-008	0.00383301
-3.086075e-008	0.0048584
-3.083575e-008	0.00208741
-3.081075e-008	-0.00687255
-3.078575e-008	-0.00181884
-3.076075e-008	0.00709229
-3.073575e-008	0.00446778
-3.071075e-008	0.000256351
-3.068575e-008	-0.000244137
-3.066075e-008	0.00140381
-3.063575e-008	-8.54455e-005
-3.061075e-008	-0.000573727
-3.058575e-008	0.00222168
-3.056075e-008	0.0069336
-3.053575e-008	0.008667
-3.051075e-008	-0.00173339
-3.048575e-008	-0.00502929
-3.046075e-008	0.00249024
-3.043575e-008	-0.000744625
-3.041075e-008	-0.000622555
-3.038575e-008	0.00494385
-3.036075e-008	0.000988773
-3.033575e-008	-0.00141601
-3.031075e-008	-0.00185547
-3.028575e-008	-0.00214843
-3.026075e-008	-0.00262451
-3.023575e-008	-0.00670166
-3.021075e-008	-0.00388183
-3.018575e-008	-0.00141601
-3.016075e-008	-0.00534668
-3.013575e-008	-0.00388183
-3.011075e-008	0.00152588
-3.008575e-008	0.00570069
-3.006075e-008	0.00517579
-3.003575e-008	7.32459e-005
-3.001075e-008	-0.00246582
-2.998575e-008	-0.0024414
-2.996075e-008	-0.00158691
-2.993575e-008	-0.00198974
-2.991075e-008	-0.00693359
-2.988575e-008	-0.00706787
-2.986075e-008	0.00196534
-2.983575e-008	0.0048462
-2.981075e-008	-0.00198974
-2.978575e-008	-0.00108642
-2.976075e-008	0.00351563
-2.973575e-008	0.000109867
-2.971075e-008	-0.0019165
-2.968575e-008	-0.00137939
-2.966075e-008	-0.000512692
-2.963575e-008	0.00258789
-2.961075e-008	0.00493164
-2.958575e-008	0.00455323
-2.956075e-008	0.00213623
-2.953575e-008	-0.000903317
-2.951075e-008	-0.00491943
-2.948575e-008	-0.00170898
-2.946075e-008	0.00532227
-2.943575e-008	0.00123291
-2.941075e-008	-0.00200195
-2.938575e-008	0.00144043
-2.936075e-008	-0.00302734
-2.933575e-008	-0.00734863
-2.931075e-008	-0.00346679
-2.928575e-008	0.00140381
-2.926075e-008	0.00494385
-2.923575e-008	-0.000402828
-2.921075e-008	-0.00898437
-2.918575e-008	-0.00560302
-2.916075e-008	0.0017334
-2.913575e-008	0.00332032
-2.911075e-008	-0.00250244
-2.908575e-008	-0.00351562
-2.906075e-008	0.00550537
-2.903575e-008	0.00222168
-2.901075e-008	-0.0026123
-2.898575e-008	0.00335694
-2.896075e-008	-0.000817867
-2.893575e-008	-0.00279541
-2.891075e-008	0.0029419
-2.888575e-008	-0.000146481
-2.886075e-008	0.00208741
-2.883575e-008	0.00441895
-2.881075e-008	-0.00212402
-2.878575e-008	0.00123291
-2.876075e-008	0.000683597
-2.873575e-008	-0.0110718
-2.871075e-008	-0.0101318
-2.868575e-008	-0.000915524
-2.866075e-008	0.000476078
-2.863575e-008	-0.00238037
-2.861075e-008	-0.00523681
-2.858575e-008	-0.00218505
-2.856075e-008	0.00327149
-2.853575e-008	-0.00102539
-2.851075e-008	-0.00109863
-2.848575e-008	0.00375977
-2.846075e-008	-0.00107422
-2.843575e-008	-0.00161132
-2.841075e-008	0.00313721
-2.838575e-008	-0.000744625
-2.836075e-008	-0.0052124
-2.833575e-008	-0.00653076
-2.831075e-008	-0.00589599
-2.828575e-008	-0.00166015
-2.826075e-008	-0.00168457
-2.823575e-008	0.00145264
-2.821075e-008	0.00498047
-2.818575e-008	-0.00279541
-2.816075e-008	-0.00164795
-2.813575e-008	0.00184327
-2.811075e-008	-0.00444336
-2.808575e-008	-0.00155029
-2.806075e-008	0.00139161
-2.803575e-008	-0.00360107
-2.801075e-008	-0.00258789
-2.798575e-008	0.00206299
-2.796075e-008	0.000537113
-2.793575e-008	-0.00205078
-2.791075e-008	-0.00178222
-2.788575e-008	-0.00155029
-2.786075e-008	0.00263672
-2.783575e-008	0.00601807
-2.781075e-008	0.002417
-2.778575e-008	-0.00151367
-2.776075e-008	0.00244141
-2.773575e-008	0.00472412
-2.771075e-008	3.72529e-009
-2.768575e-008	-0.00120849
-2.766075e-008	-0.00258789
-2.763575e-008	0.0017212
-2.761075e-008	0.00833741
-2.758575e-008	0.00283204
-2.756075e-008	-0.00103759
-2.753575e-008	-0.00275879
-2.751075e-008	-0.00505371
-2.748575e-008	-0.00180664
-2.746075e-008	-0.00203857
-2.743575e-008	-0.00253906
-2.741075e-008	0.000183109
-2.738575e-008	0.000488285
-2.736075e-008	0.000170902
-2.733575e-008	-0.00422363
-2.731075e-008	-0.00650634
-2.728575e-008	-0.000671383
-2.726075e-008	0.000744633
-2.723575e-008	-0.00217285
-2.721075e-008	-0.00192871
-2.718575e-008	0.000805668
-2.716075e-008	0.00290528
-2.713575e-008	-0.00194091
-2.711075e-008	-0.00639648
-2.708575e-008	-0.000939938
-2.706075e-008	0.0032837
-2.703575e-008	-0.000341793
-2.701075e-008	-0.00327148
-2.698575e-008	-0.000354
-2.696075e-008	0.000500492
-2.693575e-008	-0.00738525
-2.691075e-008	-0.00982666
-2.688575e-008	-0.000744625
-2.686075e-008	0.00300293
-2.683575e-008	0.00255127
-2.681075e-008	0.00526123
-2.678575e-008	0.00129395
-2.676075e-008	-0.00753173
-2.673575e-008	-0.00885009
-2.671075e-008	-0.00159912
-2.668575e-008	0.00571289
-2.666075e-008	0.00150147
-2.663575e-008	-0.00500488
-2.661075e-008	-0.000390621
-2.658575e-008	0.00194092
-2.656075e-008	0.00075684
-2.653575e-008	0.00126953
-2.651075e-008	-0.00495605
-2.648575e-008	-0.00439453
-2.646075e-008	0.00617676
-2.643575e-008	0.00507813
-2.641075e-008	-0.00390625
-2.638575e-008	-0.0036499
-2.636075e-008	0.00209961
-2.633575e-008	0.000537113
-2.631075e-008	0.000744633
-2.628575e-008	0.00249024
-2.626075e-008	-0.00568847
-2.623575e-008	-0.0079956
-2.621075e-008	-0.00345459
-2.618575e-008	-0.000280758
-2.616075e-008	0.000891117
-2.613575e-008	-0.00201416
-2.611075e-008	-0.00220947
-2.608575e-008	0.00151368
-2.606075e-008	0.00526123
-2.603575e-008	0.00333252
-2.601075e-008	-0.00209961
-2.598575e-008	-0.00419922
-2.596075e-008	-0.00241699
-2.593575e-008	0.00305176
-2.591075e-008	0.00457764
-2.588575e-008	0.00223389
-2.586075e-008	0.0017334
-2.583575e-008	-0.00303955
-2.581075e-008	-0.00520019
-2.578575e-008	0.000354008
-2.576075e-008	0.00284424
-2.573575e-008	0.00401612
-2.571075e-008	0.00466309
-2.568575e-008	0.00352784
-2.566075e-008	0.00460205
-2.563575e-008	0.000988773
-2.561075e-008	-0.00522461
-2.558575e-008	-0.00262451
-2.556075e-008	0.000366215
-2.553575e-008	-0.000854488
-2.551075e-008	-0.0029541
-2.548575e-008	-0.00447998
-2.546075e-008	0.000256351
-2.543575e-008	0.000500492
-2.541075e-008	-0.00328369
-2.538575e-008	0.000244144
-2.536075e-008	0.00042725
-2.533575e-008	-0.00275879
-2.531075e-008	-0.00162353
-2.528575e-008	0.000817875
-2.526075e-008	0.00279541
-2.523575e-008	-0.000366207
-2.521075e-008	-0.00616455
-2.518575e-008	0.000207523
-2.516075e-008	0.00985108
-2.513575e-008	0.0072876
-2.511075e-008	0.00310059
-2.508575e-008	-0.000268551
-2.506075e-008	-0.000488278
-2.503575e-008	-0.00101318
-2.501075e-008	-0.00870361
-2.498575e-008	-0.00433349
-2.496075e-008	0.00318604
-2.493575e-008	0.000769047
-2.491075e-008	3.72529e-009
-2.488575e-008	0.000720219
-2.486075e-008	0.00162354
-2.483575e-008	0.00371094
-2.481075e-008	0.00487061
-2.478575e-008	0.000195316
-2.476075e-008	-0.00146484
-2.473575e-008	0.00236817
-2.471075e-008	0.00153809
-2.468575e-008	0.00179444
-2.466075e-008	0.00251465
-2.463575e-008	-0.00148925
-2.461075e-008	-0.00592041
-2.458575e-008	-0.00205078
-2.456075e-008	0.00552979
-2.453575e-008	-0.00114746
-2.451075e-008	-0.00706787
-2.448575e-008	0.0010376
-2.446075e-008	0.000134281
-2.443575e-008	-0.00821533
-2.441075e-008	-0.00692138
-2.438575e-008	0.00299073
-2.436075e-008	0.00675049
-2.433575e-008	-0.00223388
-2.431075e-008	-0.00162353
-2.428575e-008	0.00302735
-2.426075e-008	-0.00010986
-2.423575e-008	-1.22033e-005
-2.421075e-008	-0.00532226
-2.418575e-008	-0.0071289
-2.416075e-008	-0.00135498
-2.413575e-008	-0.0019165
-2.411075e-008	-0.00177002
-2.408575e-008	-0.000695797
-2.406075e-008	-0.00269775
-2.403575e-008	-0.00603027
-2.401075e-008	-0.00314941
-2.398575e-008	0.0043335
-2.396075e-008	0.00281983
-2.393575e-008	-0.00224609
-2.391075e-008	-0.0045166
-2.388575e-008	-0.000866696
-2.386075e-008	0.00814209
-2.383575e-008	0.00494385
-2.381075e-008	-0.00120849
-2.378575e-008	0.00112305
-2.376075e-008	9.766e-005
-2.373575e-008	-0.00100097
-2.371075e-008	-0.00317382
-2.368575e-008	-0.0026123
-2.366075e-008	-0.000439449
-2.363575e-008	-0.0019165
-2.361075e-008	0.00327149
-2.358575e-008	0.000610355
-2.356075e-008	-0.00307617
-2.353575e-008	0.00601807
-2.351075e-008	0.00238037
-2.348575e-008	-0.00649414
-2.346075e-008	-0.000817867
-2.343575e-008	0.00712891
-2.341075e-008	0.00540772
-2.338575e-008	0.00153809
-2.336075e-008	0.00236817
-2.333575e-008	-0.000927731
-2.331075e-008	-0.00581054
-2.328575e-008	-0.00378418
-2.326075e-008	0.000610355
-2.323575e-008	0.00196534
-2.321075e-008	-0.00080566
-2.318575e-008	-0.00216064
-2.316075e-008	-0.00238037
-2.313575e-008	-0.00697021
-2.311075e-008	-0.00617675
-2.308575e-008	0.00217286
-2.306075e-008	0.00528565
-2.303575e-008	0.00158692
-2.301075e-008	-0.000256344
-2.298575e-008	0.0019043
-2.296075e-008	9.766e-005
-2.293575e-008	0.000256351
-2.291075e-008	0.00526123
-2.288575e-008	0.00439454
-2.286075e-008	0.00368653
-2.283575e-008	0.00129395
-2.281075e-008	-0.00460205
-2.278575e-008	-0.00114746
-2.276075e-008	0.00021973
-2.273575e-008	-0.00582275
-2.271075e-008	-0.00435791
-2.268575e-008	0.00101319
-2.266075e-008	-0.00117187
-2.263575e-008	-0.00388183
-2.261075e-008	0.00258789
-2.258575e-008	0.00438233
-2.256075e-008	-0.000463863
-2.253575e-008	-0.00177002
-2.251075e-008	-0.00380859
-2.248575e-008	-0.00209961
-2.246075e-008	-0.00180664
-2.243575e-008	-0.0067749
-2.241075e-008	-0.00371093
-2.238575e-008	-0.0014038
-2.236075e-008	-0.00738525
-2.233575e-008	-0.00795898
-2.231075e-008	7.32459e-005
-2.228575e-008	0.00302735
-2.226075e-008	0.000866703
-2.223575e-008	0.00308838
-2.221075e-008	0.00231934
-2.218575e-008	0.0015625
-2.216075e-008	0.00310059
-2.213575e-008	0.000744633
-2.211075e-008	0.00245362
-2.208575e-008	-0.00080566
-2.206075e-008	-0.00797119