# LECROYWM813Zi	51496	Waveform
# Segments	1	SegmentSize	4002
# Segment	TrigTime	TimeSinceSegment1
# #1	30-Nov-2018 17:24:38	0                 
# Time	Ampl
-5.00029e-008	0.0170166
-4.99779e-008	0.0177246
-4.99529e-008	0.0274414
-4.99279e-008	0.0224854
-4.99029e-008	0.0236328
-4.98779e-008	0.0297852
-4.98529e-008	0.0107178
-4.98279e-008	0.00810548
-4.98029e-008	0.0224609
-4.97779e-008	0.0211426
-4.97529e-008	0.0282471
-4.97279e-008	0.0302979
-4.97029e-008	0.0245361
-4.96779e-008	0.027832
-4.96529e-008	0.0166504
-4.96279e-008	0.0188477
-4.96029e-008	0.0308106
-4.95779e-008	0.0182861
-4.95529e-008	0.0142334
-4.95279e-008	0.0177002
-4.95029e-008	0.0196777
-4.94779e-008	0.0198242
-4.94529e-008	0.0153076
-4.94279e-008	0.0249268
-4.94029e-008	0.0246338
-4.93779e-008	0.0184082
-4.93529e-008	0.0291504
-4.93279e-008	0.035669
-4.93029e-008	0.0405274
-4.92779e-008	0.0358643
-4.92529e-008	0.0219727
-4.92279e-008	0.0213623
-4.92029e-008	0.0165283
-4.91779e-008	0.012207
-4.91529e-008	0.0266602
-4.91279e-008	0.0316406
-4.91029e-008	0.0258545
-4.90779e-008	0.0229736
-4.90529e-008	0.0112793
-4.90279e-008	0.00898438
-4.90029e-008	0.0180176
-4.89779e-008	0.0213867
-4.89529e-008	0.0236328
-4.89279e-008	0.0169434
-4.89029e-008	0.0174316
-4.88779e-008	0.0322754
-4.88529e-008	0.0311768
-4.88279e-008	0.019165
-4.88029e-008	0.0208252
-4.87779e-008	0.0250733
-4.87529e-008	0.0105957
-4.87279e-008	0.00341798
-4.87029e-008	0.0185547
-4.86779e-008	0.030957
-4.86529e-008	0.0315674
-4.86279e-008	0.0222412
-4.86029e-008	0.0220459
-4.85779e-008	0.0322998
-4.85529e-008	0.0330811
-4.85279e-008	0.0239502
-4.85029e-008	0.0181397
-4.84779e-008	0.0312744
-4.84529e-008	0.0317383
-4.84279e-008	0.0159424
-4.84029e-008	0.0266846
-4.83779e-008	0.031543
-4.83529e-008	0.0258057
-4.83279e-008	0.0387695
-4.83029e-008	0.0388428
-4.82779e-008	0.027124
-4.82529e-008	0.022876
-4.82279e-008	0.0259522
-4.82029e-008	0.023169
-4.81779e-008	0.0119385
-4.81529e-008	0.0239502
-4.81279e-008	0.0327881
-4.81029e-008	0.0277344
-4.80779e-008	0.0288574
-4.80529e-008	0.0152344
-4.80279e-008	0.0138916
-4.80029e-008	0.0225342
-4.79779e-008	0.0193359
-4.79529e-008	0.02854
-4.79279e-008	0.0280029
-4.79029e-008	0.0234863
-4.78779e-008	0.0292236
-4.78529e-008	0.0142822
-4.78279e-008	0.00458985
-4.78029e-008	0.0188232
-4.77779e-008	0.0305908
-4.77529e-008	0.0283203
-4.77279e-008	0.021582
-4.77029e-008	0.0252197
-4.76779e-008	0.0204102
-4.76529e-008	0.0162109
-4.76279e-008	0.0262695
-4.76029e-008	0.022583
-4.75779e-008	0.0192139
-4.75529e-008	0.0213135
-4.75279e-008	0.0218262
-4.75029e-008	0.0346436
-4.74779e-008	0.0395508
-4.74529e-008	0.0248291
-4.74279e-008	0.0133545
-4.74029e-008	0.0213867
-4.73779e-008	0.0311279
-4.73529e-008	0.0314697
-4.73279e-008	0.0276856
-4.73029e-008	0.0166016
-4.72779e-008	0.0138428
-4.72529e-008	0.0134033
-4.72279e-008	0.00903321
-4.72029e-008	0.0197754
-4.71779e-008	0.0242188
-4.71529e-008	0.0139893
-4.71279e-008	0.0221924
-4.71029e-008	0.0458008
-4.70779e-008	0.0398193
-4.70529e-008	0.0174561
-4.70279e-008	0.0195557
-4.70029e-008	0.0213623
-4.69779e-008	0.0208008
-4.69529e-008	0.0320068
-4.69279e-008	0.0350586
-4.69029e-008	0.026001
-4.68779e-008	0.0185059
-4.68529e-008	0.0241943
-4.68279e-008	0.027832
-4.68029e-008	0.0254639
-4.67779e-008	0.0241699
-4.67529e-008	0.0146973
-4.67279e-008	0.0118164
-4.67029e-008	0.0288818
-4.66779e-008	0.0349121
-4.66529e-008	0.0131348
-4.66279e-008	0.0171387
-4.66029e-008	0.0352539
-4.65779e-008	0.0229981
-4.65529e-008	0.0195801
-4.65279e-008	0.0230225
-4.65029e-008	0.0255127
-4.64779e-008	0.0310791
-4.64529e-008	0.0229248
-4.64279e-008	0.0113281
-4.64029e-008	0.00959473
-4.63779e-008	0.0271484
-4.63529e-008	0.0353272
-4.63279e-008	0.0261719
-4.63029e-008	0.0240234
-4.62779e-008	0.0167236
-4.62529e-008	0.0102783
-4.62279e-008	0.0154297
-4.62029e-008	0.0196533
-4.61779e-008	0.0136719
-4.61529e-008	0.0101318
-4.61279e-008	0.0167725
-4.61029e-008	0.0229736
-4.60779e-008	0.0216309
-4.60529e-008	0.0118164
-4.60279e-008	0.0151367
-4.60029e-008	0.0315674
-4.59779e-008	0.0355957
-4.59529e-008	0.0254639
-4.59279e-008	0.0184082
-4.59029e-008	0.0315674
-4.58779e-008	0.0433838
-4.58529e-008	0.0312744
-4.58279e-008	0.016333
-4.58029e-008	0.0134277
-4.57779e-008	0.0181152
-4.57529e-008	0.0223877
-4.57279e-008	0.0186279
-4.57029e-008	0.0150635
-4.56779e-008	0.0172852
-4.56529e-008	0.0147461
-4.56279e-008	0.00927735
-4.56029e-008	0.0154785
-4.55779e-008	0.0243652
-4.55529e-008	0.0196533
-4.55279e-008	0.0167969
-4.55029e-008	0.0240479
-4.54779e-008	0.0245361
-4.54529e-008	0.0151611
-4.54279e-008	0.0121094
-4.54029e-008	0.0138184
-4.53779e-008	0.0117432
-4.53529e-008	0.0211914
-4.53279e-008	0.0227783
-4.53029e-008	0.0104981
-4.52779e-008	0.0236816
-4.52529e-008	0.0344483
-4.52279e-008	0.0224609
-4.52029e-008	0.0207031
-4.51779e-008	0.0274414
-4.51529e-008	0.0316895
-4.51279e-008	0.0206299
-4.51029e-008	0.0133789
-4.50779e-008	0.0313721
-4.50529e-008	0.0314941
-4.50279e-008	0.0320801
-4.50029e-008	0.0355957
-4.49779e-008	0.0038086
-4.49529e-008	0.00607911
-4.49279e-008	0.026001
-4.49029e-008	0.0189209
-4.48779e-008	0.0306641
-4.48529e-008	0.0265625
-4.48279e-008	0.0114258
-4.48029e-008	0.0224854
-4.47779e-008	0.0217529
-4.47529e-008	0.0115234
-4.47279e-008	0.0178955
-4.47029e-008	0.0365479
-4.46779e-008	0.0328613
-4.46529e-008	0.00964356
-4.46279e-008	0.0151367
-4.46029e-008	0.024292
-4.45779e-008	0.0161377
-4.45529e-008	0.0240967
-4.45279e-008	0.0322022
-4.45029e-008	0.0347168
-4.44779e-008	0.0314209
-4.44529e-008	0.00942384
-4.44279e-008	0.014502
-4.44029e-008	0.025415
-4.43779e-008	0.0160889
-4.43529e-008	0.0257324
-4.43279e-008	0.0173584
-4.43029e-008	0.00996095
-4.42779e-008	0.0257568
-4.42529e-008	0.0142334
-4.42279e-008	0.0105469
-4.42029e-008	0.020166
-4.41779e-008	0.0219238
-4.41529e-008	0.0177979
-4.41279e-008	0.00681153
-4.41029e-008	0.0235352
-4.40779e-008	0.0294922
-4.40529e-008	0.0148193
-4.40279e-008	0.0273193
-4.40029e-008	0.0305176
-4.39779e-008	0.0182861
-4.39529e-008	0.0178467
-4.39279e-008	0.0199951
-4.39029e-008	0.027002
-4.38779e-008	0.0313721
-4.38529e-008	0.00400391
-4.38279e-008	-0.00947265
-4.38029e-008	0.0282715
-4.37779e-008	0.0338623
-4.37529e-008	0.00400391
-4.37279e-008	0.00935059
-4.37029e-008	0.029834
-4.36779e-008	0.0310547
-4.36529e-008	0.0235107
-4.36279e-008	0.0217285
-4.36029e-008	0.0154785
-4.35779e-008	0.0176758
-4.35529e-008	0.0348633
-4.35279e-008	0.0236328
-4.35029e-008	0.00803223
-4.34779e-008	0.0234619
-4.34529e-008	0.0255371
-4.34279e-008	0.01604
-4.34029e-008	0.0157227
-4.33779e-008	0.0118164
-4.33529e-008	0.0143066
-4.33279e-008	0.0181641
-4.33029e-008	0.0296631
-4.32779e-008	0.0374756
-4.32529e-008	0.0171143
-4.32279e-008	0.0154541
-4.32029e-008	0.0250977
-4.31779e-008	0.0208984
-4.31529e-008	0.0276123
-4.31279e-008	0.0255859
-4.31029e-008	0.0167236
-4.30779e-008	0.0133301
-4.30529e-008	0.00759278
-4.30279e-008	0.0200928
-4.30029e-008	0.0348145
-4.29779e-008	0.026294
-4.29529e-008	0.0166016
-4.29279e-008	0.0161621
-4.29029e-008	0.0248291
-4.28779e-008	0.0310547
-4.28529e-008	0.0196045
-4.28279e-008	0.0125
-4.28029e-008	0.0150879
-4.27779e-008	0.0235352
-4.27529e-008	0.0310059
-4.27279e-008	0.0201416
-4.27029e-008	0.0142334
-4.26779e-008	0.0209473
-4.26529e-008	0.0278809
-4.26279e-008	0.0286377
-4.26029e-008	0.0224365
-4.25779e-008	0.0217529
-4.25529e-008	0.0181885
-4.25279e-008	0.01521
-4.25029e-008	0.0174561
-4.24779e-008	0.0238525
-4.24529e-008	0.0300537
-4.24279e-008	0.0202881
-4.24029e-008	0.0184815
-4.23779e-008	0.0234863
-4.23529e-008	0.0250733
-4.23279e-008	0.0286865
-4.23029e-008	0.0187256
-4.22779e-008	0.0208984
-4.22529e-008	0.0288574
-4.22279e-008	0.0219482
-4.22029e-008	0.0143066
-4.21779e-008	0.00871583
-4.21529e-008	0.0258789
-4.21279e-008	0.0303223
-4.21029e-008	0.0112061
-4.20779e-008	0.015332
-4.20529e-008	0.021167
-4.20279e-008	0.0244141
-4.20029e-008	0.0263428
-4.19779e-008	0.0252686
-4.19529e-008	0.0284668
-4.19279e-008	0.0177734
-4.19029e-008	0.0188965
-4.18779e-008	0.0295899
-4.18529e-008	0.0231934
-4.18279e-008	0.0171875
-4.18029e-008	0.0187012
-4.17779e-008	0.0286865
-4.17529e-008	0.0320313
-4.17279e-008	0.0261231
-4.17029e-008	0.0313233
-4.16779e-008	0.0291016
-4.16529e-008	0.0158203
-4.16279e-008	0.0183594
-4.16029e-008	0.0293701
-4.15779e-008	0.0316406
-4.15529e-008	0.0275635
-4.15279e-008	0.0168213
-4.15029e-008	0.0120361
-4.14779e-008	0.0265381
-4.14529e-008	0.0340332
-4.14279e-008	0.0313477
-4.14029e-008	0.0363281
-4.13779e-008	0.0251221
-4.13529e-008	0.0125
-4.13279e-008	0.0203125
-4.13029e-008	0.0217774
-4.12779e-008	0.0232178
-4.12529e-008	0.0233887
-4.12279e-008	0.0170899
-4.12029e-008	0.0211426
-4.11779e-008	0.0340576
-4.11529e-008	0.0427979
-4.11279e-008	0.0230957
-4.11029e-008	0.014917
-4.10779e-008	0.0281494
-4.10529e-008	0.0164307
-4.10279e-008	0.0213135
-4.10029e-008	0.0266113
-4.09779e-008	0.0118897
-4.09529e-008	0.0229004
-4.09279e-008	0.0209229
-4.09029e-008	0.0168701
-4.08779e-008	0.0324219
-4.08529e-008	0.0246094
-4.08279e-008	0.0195557
-4.08029e-008	0.0152832
-4.07779e-008	0.00686036
-4.07529e-008	0.0286621
-4.07279e-008	0.0283936
-4.07029e-008	0.0118164
-4.06779e-008	0.0314697
-4.06529e-008	0.0390869
-4.06279e-008	0.0296387
-4.06029e-008	0.0329834
-4.05779e-008	0.0326904
-4.05529e-008	0.0229981
-4.05279e-008	0.0108643
-4.05029e-008	0.0138184
-4.04779e-008	0.0215332
-4.04529e-008	0.0131104
-4.04279e-008	0.014917
-4.04029e-008	0.0299316
-4.03779e-008	0.0286133
-4.03529e-008	0.0239502
-4.03279e-008	0.0307617
-4.03029e-008	0.0368164
-4.02779e-008	0.0338379
-4.02529e-008	0.0169678
-4.02279e-008	0.0140137
-4.02029e-008	0.0257324
-4.01779e-008	0.0184082
-4.01529e-008	0.0187988
-4.01279e-008	0.0188965
-4.01029e-008	0.0119385
-4.00779e-008	0.0285889
-4.00529e-008	0.0246826
-4.00279e-008	0.0132324
-4.00029e-008	0.0228516
-3.99779e-008	0.0200928
-3.99529e-008	0.0282959
-3.99279e-008	0.0353027
-3.99029e-008	0.0243164
-3.98779e-008	0.0284912
-3.98529e-008	0.0318604
-3.98279e-008	0.0254883
-3.98029e-008	0.0198242
-3.97779e-008	0.0247803
-3.97529e-008	0.039209
-3.97279e-008	0.0342041
-3.97029e-008	0.0206543
-3.96779e-008	0.016333
-3.96529e-008	0.0139893
-3.96279e-008	0.0162109
-3.96029e-008	0.0167481
-3.95779e-008	0.0145996
-3.95529e-008	0.0217774
-3.95279e-008	0.0297852
-3.95029e-008	0.0323975
-3.94779e-008	0.0337402
-3.94529e-008	0.0186279
-3.94279e-008	0.00957032
-3.94029e-008	0.025293
-3.93779e-008	0.0238525
-3.93529e-008	0.0208984
-3.93279e-008	0.0342041
-3.93029e-008	0.0347412
-3.92779e-008	0.0347656
-3.92529e-008	0.0297608
-3.92279e-008	0.0192627
-3.92029e-008	0.0244873
-3.91779e-008	0.0231201
-3.91529e-008	0.0141602
-3.91279e-008	0.018042
-3.91029e-008	0.0249268
-3.90779e-008	0.0223633
-3.90529e-008	0.0154541
-3.90279e-008	0.0182129
-3.90029e-008	0.02229
-3.89779e-008	0.0220215
-3.89529e-008	0.0229981
-3.89279e-008	0.0171875
-3.89029e-008	0.0221436
-3.88779e-008	0.0337402
-3.88529e-008	0.0241455
-3.88279e-008	0.0200928
-3.88029e-008	0.0226074
-3.87779e-008	0.0160156
-3.87529e-008	0.0236084
-3.87279e-008	0.0250488
-3.87029e-008	0.0190674
-3.86779e-008	0.0252686
-3.86529e-008	0.0184326
-3.86279e-008	0.0251465
-3.86029e-008	0.0410645
-3.85779e-008	0.0287109
-3.85529e-008	0.0216065
-3.85279e-008	0.0172363
-3.85029e-008	0.0158447
-3.84779e-008	0.0306641
-3.84529e-008	0.0271973
-3.84279e-008	0.0216797
-3.84029e-008	0.0332275
-3.83779e-008	0.0297119
-3.83529e-008	0.0198731
-3.83279e-008	0.0217529
-3.83029e-008	0.0217529
-3.82779e-008	0.0200195
-3.82529e-008	0.01521
-3.82279e-008	0.020459
-3.82029e-008	0.0337158
-3.81779e-008	0.0166504
-3.81529e-008	0.00678712
-3.81279e-008	0.0260986
-3.81029e-008	0.0247559
-3.80779e-008	0.0166748
-3.80529e-008	0.0199951
-3.80279e-008	0.017627
-3.80029e-008	0.0186035
-3.79779e-008	0.0232178
-3.79529e-008	0.0262695
-3.79279e-008	0.0284424
-3.79029e-008	0.0246826
-3.78779e-008	0.0149902
-3.78529e-008	0.00639649
-3.78279e-008	0.0126465
-3.78029e-008	0.0189941
-3.77779e-008	0.0157227
-3.77529e-008	0.0247315
-3.77279e-008	0.0289307
-3.77029e-008	0.0255371
-3.76779e-008	0.0294922
-3.76529e-008	0.0260742
-3.76279e-008	0.0184326
-3.76029e-008	0.0130127
-3.75779e-008	0.0155762
-3.75529e-008	0.0185059
-3.75279e-008	0.0135498
-3.75029e-008	0.029541
-3.74779e-008	0.0386963
-3.74529e-008	0.00778809
-3.74279e-008	-0.00280761
-3.74029e-008	0.00920411
-3.73779e-008	0.0101807
-3.73529e-008	0.0257568
-3.73279e-008	0.0281494
-3.73029e-008	0.018042
-3.72779e-008	0.0318359
-3.72529e-008	0.0278076
-3.72279e-008	0.017041
-3.72029e-008	0.024585
-3.71779e-008	0.0200928
-3.71529e-008	0.0143555
-3.71279e-008	0.0170899
-3.71029e-008	0.0243897
-3.70779e-008	0.0292725
-3.70529e-008	0.0210205
-3.70279e-008	0.0132324
-3.70029e-008	0.0112549
-3.69779e-008	0.0223877
-3.69529e-008	0.0314941
-3.69279e-008	0.0236572
-3.69029e-008	0.0232666
-3.68779e-008	0.0162109
-3.68529e-008	0.00524903
-3.68279e-008	0.0125244
-3.68029e-008	0.0139404
-3.67779e-008	0.0164063
-3.67529e-008	0.0226807
-3.67279e-008	0.0144043
-3.67029e-008	0.0240723
-3.66779e-008	0.0339844
-3.66529e-008	0.0126221
-3.66279e-008	0.0188477
-3.66029e-008	0.0371826
-3.65779e-008	0.0236816
-3.65529e-008	0.0197022
-3.65279e-008	0.0257324
-3.65029e-008	0.032251
-3.64779e-008	0.0393311
-3.64529e-008	0.0279785
-3.64279e-008	0.0129639
-3.64029e-008	0.0109375
-3.63779e-008	0.0219482
-3.63529e-008	0.0355225
-3.63279e-008	0.0314697
-3.63029e-008	0.0282959
-3.62779e-008	0.0387695
-3.62529e-008	0.0230469
-3.62279e-008	0.0121582
-3.62029e-008	0.0247315
-3.61779e-008	0.0118408
-3.61529e-008	0.0158691
-3.61279e-008	0.0322266
-3.61029e-008	0.0347412
-3.60779e-008	0.046875
-3.60529e-008	0.0304443
-3.60279e-008	0.0194824
-3.60029e-008	0.0284912
-3.59779e-008	0.01604
-3.59529e-008	0.0206787
-3.59279e-008	0.0262695
-3.59029e-008	0.0237061
-3.58779e-008	0.0388672
-3.58529e-008	0.0320068
-3.58279e-008	0.0149658
-3.58029e-008	0.0184815
-3.57779e-008	0.0243164
-3.57529e-008	0.0291016
-3.57279e-008	0.0279541
-3.57029e-008	0.0252197
-3.56779e-008	0.0181152
-3.56529e-008	0.00668946
-3.56279e-008	0.0198975
-3.56029e-008	0.0307861
-3.55779e-008	0.0222168
-3.55529e-008	0.0177246
-3.55279e-008	0.0144531
-3.55029e-008	0.0248047
-3.54779e-008	0.0284668
-3.54529e-008	0.00673829
-3.54279e-008	0.00332032
-3.54029e-008	0.0155518
-3.53779e-008	0.0219727
-3.53529e-008	0.0259766
-3.53279e-008	0.0152832
-3.53029e-008	0.0123047
-3.52779e-008	0.0315918
-3.52529e-008	0.0292236
-3.52279e-008	0.0133545
-3.52029e-008	0.0189697
-3.51779e-008	0.0263184
-3.51529e-008	0.0300293
-3.51279e-008	0.0300293
-3.51029e-008	0.0206055
-3.50779e-008	0.026294
-3.50529e-008	0.0356201
-3.50279e-008	0.0262451
-3.50029e-008	0.0200928
-3.49779e-008	0.0238525
-3.49529e-008	0.0260254
-3.49279e-008	0.0220703
-3.49029e-008	0.0156738
-3.48779e-008	0.0222656
-3.48529e-008	0.0287354
-3.48279e-008	0.0205811
-3.48029e-008	0.0165283
-3.47779e-008	0.0127197
-3.47529e-008	0.0161377
-3.47279e-008	0.0279541
-3.47029e-008	0.0252441
-3.46779e-008	0.0229981
-3.46529e-008	0.00991212
-3.46279e-008	-0.00161132
-3.46029e-008	0.0193604
-3.45779e-008	0.0304199
-3.45529e-008	0.0268311
-3.45279e-008	0.0242432
-3.45029e-008	0.0254883
-3.44779e-008	0.0269775
-3.44529e-008	0.00969239
-3.44279e-008	0.00769044
-3.44029e-008	0.0187988
-3.43779e-008	0.01521
-3.43529e-008	0.0203125
-3.43279e-008	0.0276611
-3.43029e-008	0.0263672
-3.42779e-008	0.027002
-3.42529e-008	0.0285645
-3.42279e-008	0.0285645
-3.42029e-008	0.0268311
-3.41779e-008	0.026709
-3.41529e-008	0.0267578
-3.41279e-008	0.0213379
-3.41029e-008	0.0189697
-3.40779e-008	0.0255371
-3.40529e-008	0.0251709
-3.40279e-008	0.0132324
-3.40029e-008	0.0090088
-3.39779e-008	0.0194824
-3.39529e-008	0.0237305
-3.39279e-008	0.017334
-3.39029e-008	0.0211182
-3.38779e-008	0.0241211
-3.38529e-008	0.0176025
-3.38279e-008	0.0183106
-3.38029e-008	0.0191162
-3.37779e-008	0.0154053
-3.37529e-008	0.0227051
-3.37279e-008	0.0360352
-3.37029e-008	0.0385742
-3.36779e-008	0.0286621
-3.36529e-008	0.0201172
-3.36279e-008	0.0229492
-3.36029e-008	0.0233154
-3.35779e-008	0.0204834
-3.35529e-008	0.0213135
-3.35279e-008	0.0198731
-3.35029e-008	0.0248779
-3.34779e-008	0.0216553
-3.34529e-008	0.00998536
-3.34279e-008	0.0148193
-3.34029e-008	0.0169434
-3.33779e-008	0.0189697
-3.33529e-008	0.0316406
-3.33279e-008	0.0293457
-3.33029e-008	0.0218262
-3.32779e-008	0.0229004
-3.32529e-008	0.0171387
-3.32279e-008	0.017041
-3.32029e-008	0.0270752
-3.31779e-008	0.0274902
-3.31529e-008	0.0258789
-3.31279e-008	0.0227051
-3.31029e-008	0.0189209
-3.30779e-008	0.0255615
-3.30529e-008	0.0293457
-3.30279e-008	0.0235352
-3.30029e-008	0.0186035
-3.29779e-008	0.026709
-3.29529e-008	0.0367432
-3.29279e-008	0.0284424
-3.29029e-008	0.0200195
-3.28779e-008	0.023877
-3.28529e-008	0.0261719
-3.28279e-008	0.0216797
-3.28029e-008	0.0145996
-3.27779e-008	0.0243897
-3.27529e-008	0.040918
-3.27279e-008	0.0253174
-3.27029e-008	0.0160645
-3.26779e-008	0.0347168
-3.26529e-008	0.0274414
-3.26279e-008	0.0160645
-3.26029e-008	0.0248535
-3.25779e-008	0.0282471
-3.25529e-008	0.033374
-3.25279e-008	0.0259522
-3.25029e-008	0.0145508
-3.24779e-008	0.0195313
-3.24529e-008	0.0130615
-3.24279e-008	0.0177979
-3.24029e-008	0.0294678
-3.23779e-008	0.0195068
-3.23529e-008	0.0263916
-3.23279e-008	0.0312744
-3.23029e-008	0.0206543
-3.22779e-008	0.0218018
-3.22529e-008	0.0204346
-3.22279e-008	0.0235352
-3.22029e-008	0.020044
-3.21779e-008	0.0115967
-3.21529e-008	0.0267822
-3.21279e-008	0.0327149
-3.21029e-008	0.0307373
-3.20779e-008	0.0314697
-3.20529e-008	0.0121338
-3.20279e-008	0.00532227
-3.20029e-008	0.0163574
-3.19779e-008	0.0163818
-3.19529e-008	0.0236328
-3.19279e-008	0.0282227
-3.19029e-008	0.019458
-3.18779e-008	0.0288818
-3.18529e-008	0.0329346
-3.18279e-008	0.0181397
-3.18029e-008	0.0234131
-3.17779e-008	0.0282715
-3.17529e-008	0.0233154
-3.17279e-008	0.0329834
-3.17029e-008	0.0337647
-3.16779e-008	0.0246094
-3.16529e-008	0.0193115
-3.16279e-008	0.0150147
-3.16029e-008	0.0198486
-3.15779e-008	0.0257813
-3.15529e-008	0.0222412
-3.15279e-008	0.0199463
-3.15029e-008	0.0250244
-3.14779e-008	0.0203857
-3.14529e-008	0.0136475
-3.14279e-008	0.0217774
-3.14029e-008	0.0229981
-3.13779e-008	0.0162598
-3.13529e-008	0.0193359
-3.13279e-008	0.0291992
-3.13029e-008	0.0316162
-3.12779e-008	0.0300781
-3.12529e-008	0.0333496
-3.12279e-008	0.0292725
-3.12029e-008	0.0210449
-3.11779e-008	0.0170654
-3.11529e-008	0.0190186
-3.11279e-008	0.0194092
-3.11029e-008	0.0229981
-3.10779e-008	0.0365723
-3.10529e-008	0.0174561
-3.10279e-008	0.00292969
-3.10029e-008	0.0268311
-3.09779e-008	0.022168
-3.09529e-008	0.0140381
-3.09279e-008	0.0202881
-3.09029e-008	0.0148926
-3.08779e-008	0.021582
-3.08529e-008	0.0162109
-3.08279e-008	0.00656739
-3.08029e-008	0.0202393
-3.07779e-008	0.0274414
-3.07529e-008	0.0274902
-3.07279e-008	0.0289795
-3.07029e-008	0.0267578
-3.06779e-008	0.0232178
-3.06529e-008	0.0250244
-3.06279e-008	0.0241211
-3.06029e-008	0.0188721
-3.05779e-008	0.0255615
-3.05529e-008	0.023584
-3.05279e-008	0.0138672
-3.05029e-008	0.0241455
-3.04779e-008	0.0323731
-3.04529e-008	0.0234619
-3.04279e-008	0.0210693
-3.04029e-008	0.0228516
-3.03779e-008	0.0155762
-3.03529e-008	0.0227783
-3.03279e-008	0.0296875
-3.03029e-008	0.0196045
-3.02779e-008	0.0276367
-3.02529e-008	0.0321533
-3.02279e-008	0.0167969
-3.02029e-008	0.0195313
-3.01779e-008	0.0289551
-3.01529e-008	0.0157715
-3.01279e-008	0.0038086
-3.01029e-008	0.0175781
-3.00779e-008	0.0313965
-3.00529e-008	0.028833
-3.00279e-008	0.0255615
-3.00029e-008	0.0258057
-2.99779e-008	0.0218506
-2.99529e-008	0.0243897
-2.99279e-008	0.0300049
-2.99029e-008	0.0178955
-2.98779e-008	0.0156006
-2.98529e-008	0.0273926
-2.98279e-008	0.0262451
-2.98029e-008	0.0297852
-2.97779e-008	0.0338135
-2.97529e-008	0.0224121
-2.97279e-008	0.0174072
-2.97029e-008	0.0285645
-2.96779e-008	0.0368164
-2.96529e-008	0.0294922
-2.96279e-008	0.0172119
-2.96029e-008	0.0166748
-2.95779e-008	0.0241455
-2.95529e-008	0.0253418
-2.95279e-008	0.0252686
-2.95029e-008	0.0304443
-2.94779e-008	0.0273438
-2.94529e-008	0.0157959
-2.94279e-008	0.0178223
-2.94029e-008	0.0257568
-2.93779e-008	0.0248535
-2.93529e-008	0.0296631
-2.93279e-008	0.0282959
-2.93029e-008	0.0192871
-2.92779e-008	0.0243897
-2.92529e-008	0.0234375
-2.92279e-008	0.019165
-2.92029e-008	0.025415
-2.91779e-008	0.0217285
-2.91529e-008	0.0227295
-2.91279e-008	0.027002
-2.91029e-008	0.020459
-2.90779e-008	0.0295654
-2.90529e-008	0.0235107
-2.90279e-008	0.0027588
-2.90029e-008	0.0203857
-2.89779e-008	0.0305176
-2.89529e-008	0.0234619
-2.89279e-008	0.0272217
-2.89029e-008	0.0233887
-2.88779e-008	0.0347412
-2.88529e-008	0.0452149
-2.88279e-008	0.0283936
-2.88029e-008	0.0162109
-2.87779e-008	0.0147705
-2.87529e-008	0.0148438
-2.87279e-008	0.011377
-2.87029e-008	0.018042
-2.86779e-008	0.0277588
-2.86529e-008	0.0151856
-2.86279e-008	0.0161133
-2.86029e-008	0.0255859
-2.85779e-008	0.0168213
-2.85529e-008	0.0251953
-2.85279e-008	0.0288574
-2.85029e-008	0.00822755
-2.84779e-008	0.00864259
-2.84529e-008	0.0185547
-2.84279e-008	0.0168457
-2.84029e-008	0.0220703
-2.83779e-008	0.0249024
-2.83529e-008	0.018042
-2.83279e-008	0.0193359
-2.83029e-008	0.0274658
-2.82779e-008	0.0325195
-2.82529e-008	0.0290283
-2.82279e-008	0.0218018
-2.82029e-008	0.0252441
-2.81779e-008	0.024707
-2.81529e-008	0.0156494
-2.81279e-008	0.0199219
-2.81029e-008	0.0266113
-2.80779e-008	0.0229248
-2.80529e-008	0.0181152
-2.80279e-008	0.0160156
-2.80029e-008	0.0195801
-2.79779e-008	0.0280029
-2.79529e-008	0.0225586
-2.79279e-008	0.00847169
-2.79029e-008	0.0107666
-2.78779e-008	0.013501
-2.78529e-008	0.0150391
-2.78279e-008	0.0283447
-2.78029e-008	0.0308106
-2.77779e-008	0.0200195
-2.77529e-008	0.013208
-2.77279e-008	0.014624
-2.77029e-008	0.0255127
-2.76779e-008	0.0372315
-2.76529e-008	0.0304443
-2.76279e-008	0.0182373
-2.76029e-008	0.0201172
-2.75779e-008	0.0227051
-2.75529e-008	0.0217529
-2.75279e-008	0.0182373
-2.75029e-008	0.0276367
-2.74779e-008	0.0317139
-2.74529e-008	0.00910645
-2.74279e-008	0.0170166
-2.74029e-008	0.0318359
-2.73779e-008	0.0177979
-2.73529e-008	0.0171387
-2.73279e-008	0.0139404
-2.73029e-008	0.0165527
-2.72779e-008	0.0308106
-2.72529e-008	0.0169434
-2.72279e-008	0.00817872
-2.72029e-008	0.0201416
-2.71779e-008	0.0227783
-2.71529e-008	0.0260498
-2.71279e-008	0.0297852
-2.71029e-008	0.0287109
-2.70779e-008	0.0212647
-2.70529e-008	0.00229493
-2.70279e-008	0.00466309
-2.70029e-008	0.0186035
-2.69779e-008	0.0157715
-2.69529e-008	0.0258789
-2.69279e-008	0.0293701
-2.69029e-008	0.0180176
-2.68779e-008	0.0369141
-2.68529e-008	0.045166
-2.68279e-008	0.0239258
-2.68029e-008	0.0249024
-2.67779e-008	0.0253174
-2.67529e-008	0.0133789
-2.67279e-008	0.0188965
-2.67029e-008	0.0263672
-2.66779e-008	0.0261963
-2.66529e-008	0.0171631
-2.66279e-008	0.0113037
-2.66029e-008	0.0247559
-2.65779e-008	0.0311035
-2.65529e-008	0.0161133
-2.65279e-008	0.00493165
-2.65029e-008	0.0200684
-2.64779e-008	0.0378418
-2.64529e-008	0.0335449
-2.64279e-008	0.0237793
-2.64029e-008	0.015918
-2.63779e-008	0.0135986
-2.63529e-008	0.0230713
-2.63279e-008	0.031958
-2.63029e-008	0.0347412
-2.62779e-008	0.0355957
-2.62529e-008	0.0311279
-2.62279e-008	0.0199951
-2.62029e-008	0.0193848
-2.61779e-008	0.0277588
-2.61529e-008	0.0154785
-2.61279e-008	0.00493165
-2.61029e-008	0.0266602
-2.60779e-008	0.0370606
-2.60529e-008	0.0244141
-2.60279e-008	0.0277344
-2.60029e-008	0.0300537
-2.59779e-008	0.0172607
-2.59529e-008	0.0155029
-2.59279e-008	0.0174072
-2.59029e-008	0.021167
-2.58779e-008	0.0319336
-2.58529e-008	0.0283447
-2.58279e-008	0.0121582
-2.58029e-008	0.00388184
-2.57779e-008	0.0131348
-2.57529e-008	0.0270264
-2.57279e-008	0.0276856
-2.57029e-008	0.0277832
-2.56779e-008	0.027832
-2.56529e-008	0.0114502
-2.56279e-008	0.00891114
-2.56029e-008	0.0226807
-2.55779e-008	0.0250244
-2.55529e-008	0.0372803
-2.55279e-008	0.0374756
-2.55029e-008	0.0233887
-2.54779e-008	0.0262695
-2.54529e-008	0.0203857
-2.54279e-008	0.0255127
-2.54029e-008	0.0306641
-2.53779e-008	0.0167969
-2.53529e-008	0.0302979
-2.53279e-008	0.0343506
-2.53029e-008	0.0190674
-2.52779e-008	0.0250977
-2.52529e-008	0.0216553
-2.52279e-008	0.0138428
-2.52029e-008	0.0244385
-2.51779e-008	0.0316162
-2.51529e-008	0.0266846
-2.51279e-008	0.0188477
-2.51029e-008	0.0269775
-2.50779e-008	0.0392822
-2.50529e-008	0.0218262
-2.50279e-008	0.00480958
-2.50029e-008	0.0165283
-2.49779e-008	0.0216797
-2.49529e-008	0.0216065
-2.49279e-008	0.0314453
-2.49029e-008	0.0323486
-2.48779e-008	0.0259277
-2.48529e-008	0.0174561
-2.48279e-008	0.0220947
-2.48029e-008	0.0309082
-2.47779e-008	0.0151856
-2.47529e-008	0.00764161
-2.47279e-008	0.0151367
-2.47029e-008	0.023169
-2.46779e-008	0.0299316
-2.46529e-008	0.0190918
-2.46279e-008	0.0171631
-2.46029e-008	0.0274414
-2.45779e-008	0.0230225
-2.45529e-008	0.019751
-2.45279e-008	0.0332031
-2.45029e-008	0.0428467
-2.44779e-008	0.0258301
-2.44529e-008	0.0162109
-2.44279e-008	0.0244873
-2.44029e-008	0.021167
-2.43779e-008	0.0165039
-2.43529e-008	0.0158447
-2.43279e-008	0.0210938
-2.43029e-008	0.0306152
-2.42779e-008	0.0289795
-2.42529e-008	0.0213135
-2.42279e-008	0.0134522
-2.42029e-008	0.0162598
-2.41779e-008	0.0260986
-2.41529e-008	0.0345703
-2.41279e-008	0.0374024
-2.41029e-008	0.0287354
-2.40779e-008	0.0214111
-2.40529e-008	0.00434571
-2.40279e-008	0.00515137
-2.40029e-008	0.0357666
-2.39779e-008	0.0356934
-2.39529e-008	0.0241943
-2.39279e-008	0.0202637
-2.39029e-008	0.0277832
-2.38779e-008	0.0491455
-2.38529e-008	0.0295899
-2.38279e-008	0.00500489
-2.38029e-008	0.0124024
-2.37779e-008	0.0216065
-2.37529e-008	0.0279785
-2.37279e-008	0.0201904
-2.37029e-008	0.0132813
-2.36779e-008	0.0161865
-2.36529e-008	0.0178223
-2.36279e-008	0.0220703
-2.36029e-008	0.0217041
-2.35779e-008	0.023877
-2.35529e-008	0.0310547
-2.35279e-008	0.0296143
-2.35029e-008	0.0190674
-2.34779e-008	0.015625
-2.34529e-008	0.022168
-2.34279e-008	0.015332
-2.34029e-008	0.00673829
-2.33779e-008	0.00720216
-2.33529e-008	0.00812989
-2.33279e-008	0.0232422
-2.33029e-008	0.035791
-2.32779e-008	0.0292236
-2.32529e-008	0.0240479
-2.32279e-008	0.0232422
-2.32029e-008	0.0226074
-2.31779e-008	0.0270752
-2.31529e-008	0.0280762
-2.31279e-008	0.0201904
-2.31029e-008	0.0263672
-2.30779e-008	0.0380859
-2.30529e-008	0.0243408
-2.30279e-008	0.0134277
-2.30029e-008	0.0203369
-2.29779e-008	0.0203613
-2.29529e-008	0.0236816
-2.29279e-008	0.0283447
-2.29029e-008	0.0214111
-2.28779e-008	0.0190918
-2.28529e-008	0.0223877
-2.28279e-008	0.0218262
-2.28029e-008	0.0203125
-2.27779e-008	0.0284424
-2.27529e-008	0.0378174
-2.27279e-008	0.0239746
-2.27029e-008	0.0175049
-2.26779e-008	0.0301025
-2.26529e-008	0.0237305
-2.26279e-008	0.0236328
-2.26029e-008	0.0334961
-2.25779e-008	0.0258057
-2.25529e-008	0.0229981
-2.25279e-008	0.0216309
-2.25029e-008	0.0266846
-2.24779e-008	0.0345703
-2.24529e-008	0.0169678
-2.24279e-008	0.00959473
-2.24029e-008	0.0166748
-2.23779e-008	0.0148193
-2.23529e-008	0.0169922
-2.23279e-008	0.0208008
-2.23029e-008	0.0260254
-2.22779e-008	0.024585
-2.22529e-008	0.0155029
-2.22279e-008	0.0194336
-2.22029e-008	0.0239502
-2.21779e-008	0.0187012
-2.21529e-008	0.0173828
-2.21279e-008	0.016919
-2.21029e-008	0.0187988
-2.20779e-008	0.0303711
-2.20529e-008	0.032251
-2.20279e-008	0.0208008
-2.20029e-008	0.00878907
-2.19779e-008	0.00600587
-2.19529e-008	0.015918
-2.19279e-008	0.0120117
-2.19029e-008	0.0138916
-2.18779e-008	0.0269775
-2.18529e-008	0.0112549
-2.18279e-008	0.00500489
-2.18029e-008	0.0131836
-2.17779e-008	0.00805665
-2.17529e-008	0.017041
-2.17279e-008	0.0268066
-2.17029e-008	0.0210449
-2.16779e-008	0.0148193
-2.16529e-008	0.0138184
-2.16279e-008	0.0193115
-2.16029e-008	0.0202881
-2.15779e-008	0.0183594
-2.15529e-008	0.0272949
-2.15279e-008	0.0262695
-2.15029e-008	0.0128906
-2.14779e-008	0.0199463
-2.14529e-008	0.026294
-2.14279e-008	0.0199707
-2.14029e-008	0.0172363
-2.13779e-008	0.000781257
-2.13529e-008	0.00419923
-2.13279e-008	0.0286621
-2.13029e-008	0.0268311
-2.12779e-008	0.0227539
-2.12529e-008	0.0180176
-2.12279e-008	0.0158447
-2.12029e-008	0.0236084
-2.11779e-008	0.0125488
-2.11529e-008	0.010791
-2.11279e-008	0.0224609
-2.11029e-008	0.0232422
-2.10779e-008	0.0224365
-2.10529e-008	0.00986329
-2.10279e-008	0.00209962
-2.10029e-008	0.0188965
-2.09779e-008	0.0295654
-2.09529e-008	0.0317871
-2.09279e-008	0.0381592
-2.09029e-008	0.0299072
-2.08779e-008	0.0206543
-2.08529e-008	0.0246582
-2.08279e-008	0.0239258
-2.08029e-008	0.0279053
-2.07779e-008	0.0340088
-2.07529e-008	0.0262207
-2.07279e-008	0.0154785
-2.07029e-008	0.0216553
-2.06779e-008	0.0325928
-2.06529e-008	0.0236084
-2.06279e-008	0.0178955
-2.06029e-008	0.0182129
-2.05779e-008	0.0167481
-2.05529e-008	0.0219482
-2.05279e-008	0.0246094
-2.05029e-008	0.0342041
-2.04779e-008	0.0351074
-2.04529e-008	0.0217774
-2.04279e-008	0.0178955
-2.04029e-008	0.0125977
-2.03779e-008	0.0101318
-2.03529e-008	0.0152832
-2.03279e-008	0.0193604
-2.03029e-008	0.0291504
-2.02779e-008	0.0337402
-2.02529e-008	0.0233399
-2.02279e-008	0.0193359
-2.02029e-008	0.0268555
-2.01779e-008	0.0281983
-2.01529e-008	0.0226318
-2.01279e-008	0.0206055
-2.01029e-008	0.0263672
-2.00779e-008	0.0213135
-2.00529e-008	0.000756843
-2.00279e-008	0.00424805
-2.00029e-008	0.0260986
-1.99779e-008	0.0233399
-1.99529e-008	0.0116699
-1.99279e-008	0.0125244
-1.99029e-008	0.0241211
-1.98779e-008	0.0306152
-1.98529e-008	0.0189941
-1.98279e-008	0.0262695
-1.98029e-008	0.0363525
-1.97779e-008	0.0212158
-1.97529e-008	0.0250488
-1.97279e-008	0.0328858
-1.97029e-008	0.0249756
-1.96779e-008	0.0256104
-1.96529e-008	0.0240479
-1.96279e-008	0.0165527
-1.96029e-008	0.0106201
-1.95779e-008	0.0105713
-1.95529e-008	0.0207031
-1.95279e-008	0.015918
-1.95029e-008	0.00861817
-1.94779e-008	0.0266846
-1.94529e-008	0.0248047
-1.94279e-008	0.00654298
-1.94029e-008	0.0201904
-1.93779e-008	0.0310547
-1.93529e-008	0.0190674
-1.93279e-008	0.0195068
-1.93029e-008	0.0308594
-1.92779e-008	0.0352783
-1.92529e-008	0.0359131
-1.92279e-008	0.0290772
-1.92029e-008	0.0170654
-1.91779e-008	0.0120606
-1.91529e-008	0.0126221
-1.91279e-008	0.00712891
-1.91029e-008	0.00712891
-1.90779e-008	0.0306641
-1.90529e-008	0.0347656
-1.90279e-008	0.0230225
-1.90029e-008	0.0333008
-1.89779e-008	0.0275147
-1.89529e-008	0.0189453
-1.89279e-008	0.0202881