# LECROYWM813Zi	51496	Waveform
# Segments	1	SegmentSize	4002
# Segment	TrigTime	TimeSinceSegment1
# #1	30-Nov-2018 17:26:04	0                 
# Time	Ampl
-5.001531e-008	-0.00106201
-4.999031e-008	-0.00262451
-4.996531e-008	-0.0043457
-4.994031e-008	-0.00699463
-4.991531e-008	-0.00458984
-4.989031e-008	-0.000939938
-4.986531e-008	-0.000280758
-4.984031e-008	-0.00366211
-4.981531e-008	0.000183109
-4.979031e-008	0.00684815
-4.976531e-008	0.00479737
-4.974031e-008	-0.000134274
-4.971531e-008	-0.00426025
-4.969031e-008	-0.00308838
-4.966531e-008	-0.00189209
-4.964031e-008	0.000512699
-4.961531e-008	0.00521241
-4.959031e-008	0.00174561
-4.956531e-008	-0.00107422
-4.954031e-008	0.00108643
-4.951531e-008	0.000842289
-4.949031e-008	-0.00128173
-4.946531e-008	0.000488285
-4.944031e-008	0.00212403
-4.941531e-008	-0.00307617
-4.939031e-008	-0.00266113
-4.936531e-008	0.00375977
-4.934031e-008	0.00133057
-4.931531e-008	-0.00460205
-4.929031e-008	-0.0013916
-4.926531e-008	0.00573731
-4.924031e-008	0.00654297
-4.921531e-008	0.00187989
-4.919031e-008	-6.10314e-005
-4.916531e-008	-0.00100097
-4.914031e-008	-0.00499267
-4.911531e-008	-0.00187988
-4.909031e-008	0.00383301
-4.906531e-008	0.00087891
-4.904031e-008	-0.00324707
-4.901531e-008	0.000256351
-4.899031e-008	0.00496827
-4.896531e-008	0.00206299
-4.894031e-008	-0.00300293
-4.891531e-008	-0.00548095
-4.889031e-008	-0.00355224
-4.886531e-008	0.000622562
-4.884031e-008	0.000329594
-4.881531e-008	-0.00240478
-4.879031e-008	-0.00229492
-4.876531e-008	0.00285645
-4.874031e-008	0.00803223
-4.871531e-008	0.00534668
-4.869031e-008	-0.00222168
-4.866531e-008	-0.00490722
-4.864031e-008	-0.00523681
-4.861531e-008	-0.00633545
-4.859031e-008	-0.00151367
-4.856531e-008	0.000500492
-4.854031e-008	-0.00258789
-4.851531e-008	-0.00231933
-4.849031e-008	-0.00080566
-4.846531e-008	0.00323487
-4.844031e-008	0.00087891
-4.841531e-008	-0.00419922
-4.839031e-008	0.00106202
-4.836531e-008	0.000134281
-4.834031e-008	-0.00522461
-4.831531e-008	-0.00151367
-4.829031e-008	0.00310059
-4.826531e-008	0.00478516
-4.824031e-008	2.44178e-005
-4.821531e-008	-0.0071289
-4.819031e-008	-0.00397949
-4.816531e-008	0.00375977
-4.814031e-008	0.00478516
-4.811531e-008	-0.00068359
-4.809031e-008	-0.00632324
-4.806531e-008	-0.00704345
-4.804031e-008	-0.00112304
-4.801531e-008	0.000976566
-4.799031e-008	-0.00406494
-4.796531e-008	-0.00164795
-4.794031e-008	0.000610355
-4.791531e-008	-0.003125
-4.789031e-008	-0.00235595
-4.786531e-008	-0.000646969
-4.784031e-008	0.002771
-4.781531e-008	0.0029419
-4.779031e-008	-0.00234375
-4.776531e-008	-0.0017456
-4.774031e-008	-0.00170898
-4.771531e-008	-0.0052124
-4.769031e-008	-0.00361328
-4.766531e-008	0.000451664
-4.764031e-008	0.00316162
-4.761531e-008	0.00449219
-4.759031e-008	0.000195316
-4.756531e-008	-0.00500488
-4.754031e-008	-0.00402832
-4.751531e-008	-0.000793453
-4.749031e-008	0.000561527
-4.746531e-008	0.00042725
-4.744031e-008	0.00478516
-4.741531e-008	0.00700684
-4.739031e-008	-0.00115966
-4.736531e-008	-0.00710449
-4.734031e-008	-0.00629882
-4.731531e-008	-0.00496826
-4.729031e-008	-0.0024414
-4.726531e-008	0.00108643
-4.724031e-008	0.00236817
-4.721531e-008	-0.00102539
-4.719031e-008	-0.00169677
-4.716531e-008	0.00686036
-4.714031e-008	0.00748291
-4.711531e-008	-0.00432129
-4.709031e-008	-0.0046997
-4.706531e-008	0.00317383
-4.704031e-008	-0.00113525
-4.701531e-008	-0.0045288
-4.699031e-008	0.00104981
-4.696531e-008	-0.00352783
-4.694031e-008	-0.00689697
-4.691531e-008	0.00324707
-4.689031e-008	0.00415039
-4.686531e-008	0.00212403
-4.684031e-008	0.00528565
-4.681531e-008	-0.00283203
-4.679031e-008	-0.00732422
-4.676531e-008	-0.00288086
-4.674031e-008	-0.00720214
-4.671531e-008	-0.00854492
-4.669031e-008	-0.000122067
-4.666531e-008	0.000488285
-4.664031e-008	-0.00474853
-4.661531e-008	-0.00308838
-4.659031e-008	-0.000622555
-4.656531e-008	-0.00155029
-4.654031e-008	-0.000976559
-4.651531e-008	0.0015625
-4.649031e-008	0.00299073
-4.646531e-008	-0.00256347
-4.644031e-008	-0.00917968
-4.641531e-008	-0.00574951
-4.639031e-008	0.00203858
-4.636531e-008	0.00524903
-4.634031e-008	0.00263672
-4.631531e-008	0.00202637
-4.629031e-008	0.0071167
-4.626531e-008	0.00731202
-4.624031e-008	-0.00089111
-4.621531e-008	-0.00690918
-4.619031e-008	-0.00175781
-4.616531e-008	0.00194092
-4.614031e-008	-0.00247802
-4.611531e-008	-0.00184326
-4.609031e-008	-0.00203857
-4.606531e-008	-0.00361328
-4.604031e-008	0.00153809
-4.601531e-008	0.00301514
-4.599031e-008	9.766e-005
-4.596531e-008	0.000390629
-4.594031e-008	-0.00289306
-4.591531e-008	-0.00603027
-4.589031e-008	-0.00115966
-4.586531e-008	-0.00141601
-4.584031e-008	-0.00310058
-4.581531e-008	0.00458985
-4.579031e-008	0.00935059
-4.576531e-008	0.00379639
-4.574031e-008	-0.00275879
-4.571531e-008	-0.00568847
-4.569031e-008	-0.0086914
-4.566531e-008	-0.00654297
-4.564031e-008	0.00191651
-4.561531e-008	0.00206299
-4.559031e-008	-0.00510254
-4.556531e-008	-0.00447998
-4.554031e-008	-0.000488278
-4.551531e-008	0.00159912
-4.549031e-008	0.00192871
-4.546531e-008	0.000634769
-4.544031e-008	0.00500489
-4.541531e-008	0.00650635
-4.539031e-008	0.00142823
-4.536531e-008	0.00240479
-4.534031e-008	0.00404053
-4.531531e-008	0.00306397
-4.529031e-008	0.005896
-4.526531e-008	0.00373536
-4.524031e-008	0.000830082
-4.521531e-008	0.00357666
-4.519031e-008	-0.00189209
-4.516531e-008	-0.00576172
-4.514031e-008	0.000122074
-4.511531e-008	-0.0015625
-4.509031e-008	-0.00373535
-4.506531e-008	0.000183109
-4.504031e-008	-0.000402828
-4.501531e-008	0.00175782
-4.499031e-008	0.00805664
-4.496531e-008	0.00946045
-4.494031e-008	0.00285645
-4.491531e-008	-0.00528564
-4.489031e-008	-0.00219726
-4.486531e-008	0.000366215
-4.484031e-008	-0.00363769
-4.481531e-008	-0.00183105
-4.479031e-008	-0.000671383
-4.476531e-008	-0.00318603
-4.474031e-008	-0.00200195
-4.471531e-008	-0.00272216
-4.469031e-008	-0.00197754
-4.466531e-008	0.00289307
-4.464031e-008	-0.00198974
-4.461531e-008	-0.00462646
-4.459031e-008	0.00111084
-4.456531e-008	0.000354008
-4.454031e-008	7.32459e-005
-4.451531e-008	-0.00129394
-4.449031e-008	-0.00426025
-4.446531e-008	-0.00203857
-4.444031e-008	-0.00391845
-4.441531e-008	-0.00446777
-4.439031e-008	0.00183106
-4.436531e-008	0.00528565
-4.434031e-008	0.00205079
-4.431531e-008	-0.00224609
-4.429031e-008	0.000488285
-4.426531e-008	0.00299073
-4.424031e-008	0.000170902
-4.421531e-008	-0.00224609
-4.419031e-008	-0.00460205
-4.416531e-008	-0.00480957
-4.414031e-008	-0.00433349
-4.411531e-008	-0.00435791
-4.409031e-008	0.000793461
-4.406531e-008	0.00307618
-4.404031e-008	-0.00256347
-4.401531e-008	-0.00385742
-4.399031e-008	0.00184327
-4.396531e-008	0.00275879
-4.394031e-008	-0.0020874
-4.391531e-008	-0.00148925
-4.389031e-008	0.00362549
-4.386531e-008	0.00405274
-4.384031e-008	-0.00023193
-4.381531e-008	0.000866703
-4.379031e-008	0.00451661
-4.376531e-008	-0.00089111
-4.374031e-008	-0.00532226
-4.371531e-008	-0.00438232
-4.369031e-008	-0.00285644
-4.366531e-008	7.32459e-005
-4.364031e-008	-0.00173339
-4.361531e-008	-0.0052124
-4.359031e-008	-0.000988766
-4.356531e-008	0.00869141
-4.354031e-008	0.00667725
-4.351531e-008	-0.00474853
-4.349031e-008	-0.0017456
-4.346531e-008	0.00609131
-4.344031e-008	0.00355225
-4.341531e-008	-0.00207519
-4.339031e-008	-0.00240478
-4.336531e-008	-0.000976559
-4.334031e-008	-0.00249023
-4.331531e-008	0.000769047
-4.329031e-008	0.00390625
-4.326531e-008	0.000915531
-4.324031e-008	-0.00285644
-4.321531e-008	-0.00195312
-4.319031e-008	0.00286866
-4.316531e-008	0.00222168
-4.314031e-008	-0.000634762
-4.311531e-008	1.22108e-005
-4.309031e-008	0.00233155
-4.306531e-008	0.00192871
-4.304031e-008	-0.00522461
-4.301531e-008	-0.006604
-4.299031e-008	0.00109864
-4.296531e-008	0.00261231
-4.294031e-008	-0.00288086
-4.291531e-008	-0.00770263
-4.289031e-008	-0.00496826
-4.286531e-008	0.000610355
-4.284031e-008	-0.00119629
-4.281531e-008	-0.00155029
-4.279031e-008	0.00168457
-4.276531e-008	-0.000195309
-4.274031e-008	-0.006958
-4.271531e-008	-0.0092041
-4.269031e-008	-0.00235595
-4.266531e-008	0.00429688
-4.264031e-008	0.00479737
-4.261531e-008	-0.00180664
-4.259031e-008	-0.00207519
-4.256531e-008	0.00618897
-4.254031e-008	0.00245362
-4.251531e-008	-0.00639648
-4.249031e-008	-0.00463867
-4.246531e-008	0.000366215
-4.244031e-008	-0.00306396
-4.241531e-008	-0.00571289
-4.239031e-008	0.00114746
-4.236531e-008	3.72529e-009
-4.234031e-008	-0.00450439
-4.231531e-008	-0.00267334
-4.229031e-008	-0.00231933
-4.226531e-008	0.00284424
-4.224031e-008	0.00130616
-4.221531e-008	-0.00731201
-4.219031e-008	-0.00319824
-4.216531e-008	0.000903324
-4.214031e-008	0.000366215
-4.211531e-008	0.00469971
-4.209031e-008	0.005896
-4.206531e-008	0.00415039
-4.204031e-008	0.00471192
-4.201531e-008	-0.000207516
-4.199031e-008	-0.00831298
-4.196531e-008	-0.00617675
-4.194031e-008	2.44178e-005
-4.191531e-008	-0.00181884
-4.189031e-008	0.00128174
-4.186531e-008	0.00755616
-4.184031e-008	0.00144043
-4.181531e-008	-0.00253906
-4.179031e-008	-0.00107422
-4.176531e-008	-0.0052124
-4.174031e-008	-0.00362548
-4.171531e-008	0.00264893
-4.169031e-008	-0.00147705
-4.166531e-008	-0.00288086
-4.164031e-008	0.00285645
-4.161531e-008	0.000195316
-4.159031e-008	0.000585941
-4.156531e-008	0.00297852
-4.154031e-008	0.00021973
-4.151531e-008	0.00667725
-4.149031e-008	0.00656739
-4.146531e-008	-0.00401611
-4.144031e-008	-0.00529785
-4.141531e-008	-0.00467529
-4.139031e-008	-0.00212402
-4.136531e-008	0.00384522
-4.134031e-008	-0.000610348
-4.131531e-008	-0.00908203
-4.129031e-008	-0.00761718
-4.126531e-008	-0.00379638
-4.124031e-008	-0.00340576
-4.121531e-008	0.00203858
-4.119031e-008	0.00286866
-4.116531e-008	-0.00582275
-4.114031e-008	-0.00023193
-4.111531e-008	0.00993653
-4.109031e-008	0.00114746
-4.106531e-008	-0.00518798
-4.104031e-008	-0.00390625
-4.101531e-008	-0.00177002
-4.099031e-008	0.00516358
-4.096531e-008	0.000317387
-4.094031e-008	-0.00832519
-4.091531e-008	-0.00496826
-4.089031e-008	-0.000878903
-4.086531e-008	0.00150147
-4.084031e-008	0.00356446
-4.081531e-008	3.66248e-005
-4.079031e-008	-0.00230713
-4.076531e-008	0.000451664
-4.074031e-008	-0.0015747
-4.071531e-008	-0.00268554
-4.069031e-008	8.54529e-005
-4.066531e-008	-1.22033e-005
-4.064031e-008	0.00220948
-4.061531e-008	0.00581055
-4.059031e-008	0.00333252
-4.056531e-008	-0.00270996
-4.054031e-008	-0.00222168
-4.051531e-008	-0.0027832
-4.049031e-008	-0.00416259
-4.046531e-008	0.00313721
-4.044031e-008	-0.0024414
-4.041531e-008	-0.010144
-4.039031e-008	-0.00068359
-4.036531e-008	0.00108643
-4.034031e-008	-0.00236816
-4.031531e-008	-0.000500485
-4.029031e-008	0.00145264
-4.026531e-008	0.00227051
-4.024031e-008	-0.00413818
-4.021531e-008	-0.00684814
-4.019031e-008	-0.000219723
-4.016531e-008	0.00251465
-4.014031e-008	0.000256351
-4.011531e-008	0.00145264
-4.009031e-008	0.00183106
-4.006531e-008	-0.00267334
-4.004031e-008	0.00273438
-4.001531e-008	0.00767823
-3.999031e-008	0.0043335
-3.996531e-008	0.00614014
-3.994031e-008	0.00175782
-3.991531e-008	-0.00186767
-3.989031e-008	0.00184327
-3.986531e-008	0.00236817
-3.984031e-008	0.00333252
-3.981531e-008	-0.00305175
-3.979031e-008	-0.00604248
-3.976531e-008	0.000354008
-3.974031e-008	-0.000341793
-3.971531e-008	0.00208741
-3.969031e-008	0.00531006
-3.966531e-008	-0.00175781
-3.964031e-008	-0.00515136
-3.961531e-008	0.000952152
-3.959031e-008	0.00482178
-3.956531e-008	0.00440674
-3.954031e-008	0.00423584
-3.951531e-008	-0.00146484
-3.949031e-008	-0.00612793
-3.946531e-008	-0.0015747
-3.944031e-008	-0.00228271
-3.941531e-008	-0.00758056
-3.939031e-008	-0.00126953
-3.936531e-008	0.00800782
-3.934031e-008	0.00654297
-3.931531e-008	-0.000341793
-3.929031e-008	-0.00371093
-3.926531e-008	-0.00249023
-3.924031e-008	-0.0019165
-3.921531e-008	0.00117188
-3.919031e-008	0.00220948
-3.916531e-008	-0.00605468
-3.914031e-008	-0.00792236
-3.911531e-008	-0.0014038
-3.909031e-008	0.00219727
-3.906531e-008	0.000915531
-3.904031e-008	-0.00203857
-3.901531e-008	-0.00213623
-3.899031e-008	0.000927738
-3.896531e-008	0.00504151
-3.894031e-008	0.00528565
-3.891531e-008	0.00426026
-3.889031e-008	0.00437012
-3.886531e-008	0.00428467
-3.884031e-008	0.00378418
-3.881531e-008	-0.000451656
-3.879031e-008	-0.000964352
-3.876531e-008	-0.000659176
-3.874031e-008	-0.00592041
-3.871531e-008	-0.00584716
-3.869031e-008	0.000817875
-3.866531e-008	0.0034668
-3.864031e-008	0.000207523
-3.861531e-008	0.00509034
-3.859031e-008	0.00648194
-3.856531e-008	-0.00340576
-3.854031e-008	-0.0029541
-3.851531e-008	-0.0024292
-3.849031e-008	-0.00216064
-3.846531e-008	0.00306397
-3.844031e-008	-0.000402828
-3.841531e-008	-0.00333252
-3.839031e-008	-0.00145263
-3.836531e-008	0.00021973
-3.834031e-008	-0.00183105
-3.831531e-008	-0.00524902
-3.829031e-008	0.000915531
-3.826531e-008	0.00473633
-3.824031e-008	-0.0031372
-3.821531e-008	-0.00107422
-3.819031e-008	0.00521241
-3.816531e-008	-0.00322265
-3.814031e-008	-0.0069458
-3.811531e-008	-0.00557861
-3.809031e-008	-0.00657959
-3.806531e-008	-0.00214843
-3.804031e-008	-0.00321045
-3.801531e-008	-0.00106201
-3.799031e-008	0.00288086
-3.796531e-008	-0.0046875
-3.794031e-008	-0.00108642
-3.791531e-008	0.00552979
-3.789031e-008	0.000500492
-3.786531e-008	0.000793461
-3.784031e-008	0.000915531
-3.781531e-008	-0.00584716
-3.779031e-008	-0.00583496
-3.776531e-008	0.00135498
-3.774031e-008	0.0012085
-3.771531e-008	-0.00473632
-3.769031e-008	-0.00827636
-3.766531e-008	-0.00640869
-3.764031e-008	-0.00118408
-3.761531e-008	0.00291748
-3.759031e-008	0.00170899
-3.756531e-008	-0.00617675
-3.754031e-008	-0.00422363
-3.751531e-008	-0.00378418
-3.749031e-008	-0.0114624
-3.746531e-008	-0.00462646
-3.744031e-008	-0.00010986
-3.741531e-008	-0.00183105
-3.739031e-008	0.00180664
-3.736531e-008	-0.0013916
-3.734031e-008	-0.00380859
-3.731531e-008	-6.10314e-005
-3.729031e-008	-0.000415035
-3.726531e-008	-0.00166015
-3.724031e-008	0.0010376
-3.721531e-008	0.00522461
-3.719031e-008	0.00466309
-3.716531e-008	-0.000402828
-3.714031e-008	-0.00216064
-3.711531e-008	-0.00195312
-3.709031e-008	-0.00201416
-3.706531e-008	-0.00196533
-3.704031e-008	-0.00189209
-3.701531e-008	-0.000598141
-3.699031e-008	0.00067139
-3.696531e-008	0.00303955
-3.694031e-008	-0.00010986
-3.691531e-008	-0.00578613
-3.689031e-008	-8.54455e-005
-3.686531e-008	0.00362549
-3.684031e-008	-0.000207516
-3.681531e-008	-0.00223388
-3.679031e-008	-0.00419922
-3.676531e-008	-0.00491943
-3.674031e-008	-0.00589599
-3.671531e-008	-0.00355224
-3.669031e-008	0.000939945
-3.666531e-008	0.00021973
-3.664031e-008	0.00291748
-3.661531e-008	0.00556641
-3.659031e-008	0.00150147
-3.656531e-008	0.00350342
-3.654031e-008	0.00714112
-3.651531e-008	-0.00212402
-3.649031e-008	-0.00572509
-3.646531e-008	0.000109867
-3.644031e-008	-0.00272216
-3.641531e-008	-0.000598141
-3.639031e-008	0.00281983
-3.636531e-008	-0.000927731
-3.634031e-008	0.00200196
-3.631531e-008	0.003125
-3.629031e-008	0.00239258
-3.626531e-008	0.00229493
-3.624031e-008	-0.00317382
-3.621531e-008	-8.54455e-005
-3.619031e-008	0.00777588
-3.616531e-008	0.00620118
-3.614031e-008	-0.0020874
-3.611531e-008	-0.00697021
-3.609031e-008	-0.00212402
-3.606531e-008	-0.00511474
-3.604031e-008	-0.00917968
-3.601531e-008	0.00163575
-3.599031e-008	-0.000146481
-3.596531e-008	-0.00825195
-3.594031e-008	-0.00269775
-3.591531e-008	-0.0012207
-3.589031e-008	-0.00251464
-3.586531e-008	0.00191651
-3.584031e-008	0.00633545
-3.581531e-008	0.00419922
-3.579031e-008	-0.00272216
-3.576531e-008	-0.00158691
-3.574031e-008	0.000524906
-3.571531e-008	-0.00346679
-3.569031e-008	0.000366215
-3.566531e-008	0.00494385
-3.564031e-008	0.00175782
-3.561531e-008	0.00185547
-3.559031e-008	-0.000219723
-3.556531e-008	-0.00496826
-3.554031e-008	-0.0048706
-3.551531e-008	-0.00520019
-3.549031e-008	-0.0012207
-3.546531e-008	0.000476078
-3.544031e-008	-0.00275879
-3.541531e-008	0.00297852
-3.539031e-008	0.00819092
-3.536531e-008	0.00664063
-3.534031e-008	0.00228272
-3.531531e-008	-0.00336914
-3.529031e-008	-0.00280761
-3.526531e-008	0.000390629
-3.524031e-008	-0.00300293
-3.521531e-008	-0.00703125
-3.519031e-008	-0.00502929
-3.516531e-008	-0.00169677
-3.514031e-008	0.003125
-3.511531e-008	0.00400391
-3.509031e-008	-0.00128173
-3.506531e-008	-0.00307617
-3.504031e-008	-0.000830074
-3.501531e-008	0.00428467
-3.499031e-008	0.00562745
-3.496531e-008	0.00708008
-3.494031e-008	0.00539551
-3.491531e-008	-0.00517578
-3.489031e-008	-0.00186767
-3.486531e-008	0.000695805
-3.484031e-008	-0.00593261
-3.481531e-008	0.000683597
-3.479031e-008	0.00211182
-3.476531e-008	-0.00390625
-3.474031e-008	-0.00219726
-3.471531e-008	-0.00256347
-3.469031e-008	-0.00010986
-3.466531e-008	0.00317383
-3.464031e-008	-0.00224609
-3.461531e-008	-0.00164795
-3.459031e-008	3.72529e-009
-3.456531e-008	-0.00491943
-3.454031e-008	-0.00135498
-3.451531e-008	-0.00100097
-3.449031e-008	-0.00650634
-3.446531e-008	-0.00206298
-3.444031e-008	0.00153809
-3.441531e-008	0.00461426
-3.439031e-008	0.00791016
-3.436531e-008	0.00422364
-3.434031e-008	0.0015503
-3.431531e-008	0.000463871
-3.429031e-008	-0.00056152
-3.426531e-008	-0.00198974
-3.424031e-008	-0.00314941
-3.421531e-008	-0.00273437
-3.419031e-008	8.54529e-005
-3.416531e-008	0.00473633
-3.414031e-008	0.00240479
-3.411531e-008	-0.00303955
-3.409031e-008	-0.00433349
-3.406531e-008	-0.00168457
-3.404031e-008	0.00021973
-3.401531e-008	-0.0022705
-3.399031e-008	0.00374756
-3.396531e-008	0.0065918
-3.394031e-008	-0.00567627
-3.391531e-008	-0.00394287
-3.389031e-008	0.00478516
-3.386531e-008	0.00167237
-3.384031e-008	-0.000744625
-3.381531e-008	0.00178223
-3.379031e-008	0.00549317
-3.376531e-008	-0.00123291
-3.374031e-008	-0.00513916
-3.371531e-008	0.0013794
-3.369031e-008	-0.0031372
-3.366531e-008	-0.00535888
-3.364031e-008	0.0020752
-3.361531e-008	-0.00131836
-3.359031e-008	-0.00703125
-3.356531e-008	0.00148926
-3.354031e-008	0.00549317
-3.351531e-008	0.00122071
-3.349031e-008	0.00145264
-3.346531e-008	-0.00135498
-3.344031e-008	-0.00133056
-3.341531e-008	0.00133057
-3.339031e-008	0.00249024
-3.336531e-008	0.00158692
-3.334031e-008	-0.00493164
-3.331531e-008	-0.00344238
-3.329031e-008	0.000476078
-3.326531e-008	0.00244141
-3.324031e-008	0.00498047
-3.321531e-008	-7.32385e-005
-3.319031e-008	-0.00113525
-3.316531e-008	0.000500492
-3.314031e-008	-3.66174e-005
-3.311531e-008	0.000341801
-3.309031e-008	-0.00466308
-3.306531e-008	-0.00554199
-3.304031e-008	0.000842289
-3.301531e-008	0.00445557
-3.299031e-008	0.00495606
-3.296531e-008	0.00466309
-3.294031e-008	0.00148926
-3.291531e-008	-0.003833
-3.289031e-008	-0.00325927
-3.286531e-008	0.0013794
-3.284031e-008	0.00163575
-3.281531e-008	-0.00307617
-3.279031e-008	-0.0022705
-3.276531e-008	0.002417
-3.274031e-008	-9.76525e-005
-3.271531e-008	-7.32385e-005
-3.269031e-008	0.00336914
-3.266531e-008	0.00185547
-3.264031e-008	-0.000488278
-3.261531e-008	-0.00229492
-3.259031e-008	-0.00223388
-3.256531e-008	-0.0024414
-3.254031e-008	-0.00471191
-3.251531e-008	-0.00233154
-3.249031e-008	0.00305176
-3.246531e-008	0.00249024
-3.244031e-008	-0.0050415
-3.241531e-008	-0.00848388
-3.239031e-008	-0.00338134
-3.236531e-008	-0.000695797
-3.234031e-008	-0.00483398
-3.231531e-008	-0.00780029
-3.229031e-008	-0.00396728
-3.226531e-008	-0.00390625
-3.224031e-008	-0.00284423
-3.221531e-008	0.00357666
-3.219031e-008	0.00201416
-3.216531e-008	0.00465088
-3.214031e-008	0.00609131
-3.211531e-008	0.00250245
-3.209031e-008	0.00494385
-3.206531e-008	-0.000341793
-3.204031e-008	-0.00102539
-3.201531e-008	0.00529786
-3.199031e-008	0.000402836
-3.196531e-008	-0.000708004
-3.194031e-008	0.00412598
-3.191531e-008	0.00286866
-3.189031e-008	0.00300293
-3.186531e-008	-0.000305172
-3.184031e-008	-0.0079956
-3.181531e-008	-0.00758056
-3.179031e-008	-0.00349121
-3.176531e-008	0.00245362
-3.174031e-008	0.00859375
-3.171531e-008	0.00621338
-3.169031e-008	-0.00363769
-3.166531e-008	-0.00511474
-3.164031e-008	0.00372315
-3.161531e-008	0.00471192
-3.159031e-008	0.00192871
-3.156531e-008	0.00217286
-3.154031e-008	-0.00168457
-3.151531e-008	-0.00327148
-3.149031e-008	0.000720219
-3.146531e-008	0.00021973
-3.144031e-008	-0.00314941
-3.141531e-008	0.000170902
-3.139031e-008	0.00458985
-3.136531e-008	0.00419922
-3.134031e-008	0.00372315
-3.131531e-008	0.00374756
-3.129031e-008	0.00604248
-3.126531e-008	0.00655518
-3.124031e-008	-0.00103759
-3.121531e-008	-0.00546875
-3.119031e-008	-0.00572509
-3.116531e-008	-0.00455322
-3.114031e-008	-0.000610348
-3.111531e-008	-0.00415039
-3.109031e-008	-0.00390625
-3.106531e-008	-0.00233154
-3.104031e-008	-0.0088623
-3.101531e-008	-0.000671383
-3.099031e-008	0.0046875
-3.096531e-008	-0.00594482
-3.094031e-008	-0.00566406
-3.091531e-008	0.000317387
-3.089031e-008	0.00104981
-3.086531e-008	0.000744633
-3.084031e-008	0.00128174
-3.081531e-008	0.00335694
-3.079031e-008	-0.0014038
-3.076531e-008	-0.00655517
-3.074031e-008	0.000964359
-3.071531e-008	0.00230713
-3.069031e-008	-0.000671383
-3.066531e-008	0.00275879
-3.064031e-008	-0.00256347
-3.061531e-008	-0.00250244
-3.059031e-008	0.00364991
-3.056531e-008	-0.00239257
-3.054031e-008	-0.00725097
-3.051531e-008	-0.00930175
-3.049031e-008	-0.00700683
-3.046531e-008	0.00358887
-3.044031e-008	0.00644532
-3.041531e-008	0.00407715
-3.039031e-008	0.00262452
-3.036531e-008	0.00247803
-3.034031e-008	0.00501709
-3.031531e-008	0.00374756
-3.029031e-008	0.00321045
-3.026531e-008	0.00135498
-3.024031e-008	-0.0040039
-3.021531e-008	-0.00113525
-3.019031e-008	0.00526123
-3.016531e-008	0.00893555
-3.014031e-008	0.00576172
-3.011531e-008	-0.00410156
-3.009031e-008	-0.00601806
-3.006531e-008	-0.00240478
-3.004031e-008	0.000231937
-3.001531e-008	0.00227051
-2.999031e-008	-0.000793453
-2.996531e-008	-0.00068359
-2.994031e-008	0.00203858
-2.991531e-008	-0.000305172
-2.989031e-008	-0.000500485
-2.986531e-008	0.000964359
-2.984031e-008	0.00187989
-2.981531e-008	-0.00103759
-2.979031e-008	-0.00185547
-2.976531e-008	0.00794678
-2.974031e-008	0.00350342
-2.971531e-008	-0.00871582
-2.969031e-008	-0.00108642
-2.966531e-008	0.0055542
-2.964031e-008	0.0010376
-2.961531e-008	-0.00209961
-2.959031e-008	-0.00253906
-2.956531e-008	-0.000341793
-2.954031e-008	-0.000427242
-2.951531e-008	-0.00362548
-2.949031e-008	-0.000573727
-2.946531e-008	0.0053833
-2.944031e-008	0.00108643
-2.941531e-008	-0.00441894
-2.939031e-008	0.00333252
-2.936531e-008	0.0071045
-2.934031e-008	0.00167237
-2.931531e-008	-0.00206298
-2.929031e-008	-0.0055542
-2.926531e-008	-0.00362548
-2.924031e-008	-0.00407714
-2.921531e-008	-0.00412597
-2.919031e-008	0.000781254
-2.916531e-008	-0.0052124
-2.914031e-008	-0.00720214
-2.911531e-008	0.000500492
-2.909031e-008	0.00405274
-2.906531e-008	0.0029419
-2.904031e-008	-0.00426025
-2.901531e-008	-0.00620117
-2.899031e-008	-0.00102539
-2.896531e-008	-0.00155029
-2.894031e-008	-0.00438232
-2.891531e-008	-0.00501709
-2.889031e-008	-0.00080566
-2.886531e-008	0.00375977
-2.884031e-008	-0.00230713
-2.881531e-008	-0.00847168
-2.879031e-008	0.000402836
-2.876531e-008	0.00539551
-2.874031e-008	-0.00441894
-2.871531e-008	-0.0031372
-2.869031e-008	0.0010376
-2.866531e-008	-0.00565185
-2.864031e-008	-0.000744625
-2.861531e-008	0.0038086
-2.859031e-008	-0.00277099
-2.856531e-008	0.000939945
-2.854031e-008	0.00310059
-2.851531e-008	-0.00368652
-2.849031e-008	-0.000170895
-2.846531e-008	0.00600586
-2.844031e-008	0.00460205
-2.841531e-008	-0.00161132
-2.839031e-008	-0.00378418
-2.836531e-008	0.00504151
-2.834031e-008	0.0046875
-2.831531e-008	-0.000598141
-2.829031e-008	0.00250245
-2.826531e-008	0.00213623
-2.824031e-008	0.000610355
-2.821531e-008	-0.00433349
-2.819031e-008	-0.00493164
-2.816531e-008	0.00318604
-2.814031e-008	0.00169678
-2.811531e-008	-0.00120849
-2.809031e-008	-0.000634762
-2.806531e-008	-0.00264892
-2.804031e-008	0.000109867
-2.801531e-008	0.000256351
-2.799031e-008	-0.00161132
-2.796531e-008	0.00270996
-2.794031e-008	-0.000402828
-2.791531e-008	-0.0031372
-2.789031e-008	0.00344239
-2.786531e-008	-0.000585934
-2.784031e-008	-0.00777588
-2.781531e-008	-0.000976559
-2.779031e-008	0.00335694
-2.776531e-008	-0.00294189
-2.774031e-008	-0.009375
-2.771531e-008	-0.011853
-2.769031e-008	-0.00706787
-2.766531e-008	-0.00302734
-2.764031e-008	-0.00548095
-2.761531e-008	-0.0022583
-2.759031e-008	0.00111084
-2.756531e-008	-0.00144043
-2.754031e-008	0.00202637
-2.751531e-008	0.00268555
-2.749031e-008	-0.00335693
-2.746531e-008	-0.00406494
-2.744031e-008	-0.00336914
-2.741531e-008	0.000732426
-2.739031e-008	0.00620118
-2.736531e-008	0.00164795
-2.734031e-008	-0.00518798
-2.731531e-008	-0.00184326
-2.729031e-008	0.00507813
-2.726531e-008	0.00313721
-2.724031e-008	-0.00316162
-2.721531e-008	-0.0033081
-2.719031e-008	0.00198975
-2.716531e-008	-0.000476071
-2.714031e-008	-0.00441894
-2.711531e-008	0.000537113
-2.709031e-008	0.00228272
-2.706531e-008	0.00434571
-2.704031e-008	0.00565186
-2.701531e-008	-0.000769039
-2.699031e-008	-0.00250244
-2.696531e-008	-0.00253906
-2.694031e-008	-0.00384521
-2.691531e-008	-0.000512692
-2.689031e-008	-0.003479
-2.686531e-008	-0.00510254
-2.684031e-008	0.000927738
-2.681531e-008	-0.00170898
-2.679031e-008	-0.00471191
-2.676531e-008	-0.00266113
-2.674031e-008	-0.00450439
-2.671531e-008	-0.00520019
-2.669031e-008	0.000244144
-2.666531e-008	0.00374756
-2.664031e-008	0.000341801
-2.661531e-008	-0.00207519
-2.659031e-008	-0.00118408
-2.656531e-008	0.000268558
-2.654031e-008	0.00400391
-2.651531e-008	0.00715332
-2.649031e-008	0.00167237
-2.646531e-008	-0.00637207
-2.644031e-008	-0.00709228
-2.641531e-008	-0.000793453
-2.639031e-008	0.00231934
-2.636531e-008	-0.00426025
-2.634031e-008	-0.00780029
-2.631531e-008	-0.00817871
-2.629031e-008	-0.00247802
-2.626531e-008	0.00471192
-2.624031e-008	-0.00638427
-2.621531e-008	-0.0111694
-2.619031e-008	0.00123291
-2.616531e-008	0.00296631
-2.614031e-008	-0.00355224
-2.611531e-008	-0.00218505
-2.609031e-008	-0.00153808
-2.606531e-008	-0.00433349
-2.604031e-008	-0.000878903
-2.601531e-008	3.72529e-009
-2.599031e-008	-0.00257568
-2.596531e-008	-0.00155029
-2.594031e-008	0.00133057
-2.591531e-008	0.00327149
-2.589031e-008	0.00107422
-2.586531e-008	0.00266114
-2.584031e-008	0.00566407
-2.581531e-008	0.0017334
-2.579031e-008	-0.00310058
-2.576531e-008	-0.00423584
-2.574031e-008	-0.00270996
-2.571531e-008	-0.0031372
-2.569031e-008	-0.000524899
-2.566531e-008	0.00507813
-2.564031e-008	0.00447998
-2.561531e-008	0.00423584
-2.559031e-008	0.00510254
-2.556531e-008	0.00174561
-2.554031e-008	-0.00299072
-2.551531e-008	-0.00574951
-2.549031e-008	-0.000146481
-2.546531e-008	0.00769043
-2.544031e-008	0.000866703
-2.541531e-008	-0.0105591
-2.539031e-008	-0.00622558
-2.536531e-008	0.00112305
-2.534031e-008	0.000378422
-2.531531e-008	0.00115967
-2.529031e-008	0.00406495
-2.526531e-008	0.00332032
-2.524031e-008	-0.00285644
-2.521531e-008	-0.0013916
-2.519031e-008	0.00545655
-2.516531e-008	0.00167237
-2.514031e-008	-0.00114746
-2.511531e-008	3.72529e-009
-2.509031e-008	0.000903324
-2.506531e-008	0.0041626
-2.504031e-008	0.00472412
-2.501531e-008	0.00374756
-2.499031e-008	0.0013794
-2.496531e-008	0.00151368
-2.494031e-008	0.00455323
-2.491531e-008	-0.00101318
-2.489031e-008	-0.0055542
-2.486531e-008	0.00211182
-2.484031e-008	0.0065918
-2.481531e-008	0.00351563
-2.479031e-008	0.00140381
-2.476531e-008	-0.00080566
-2.474031e-008	-0.000988766
-2.471531e-008	-0.00010986
-2.469031e-008	0.000170902
-2.466531e-008	0.00216065
-2.464031e-008	-0.00106201
-2.461531e-008	-0.00507812
-2.459031e-008	-0.00209961
-2.456531e-008	-0.00173339
-2.454031e-008	-0.00540771
-2.451531e-008	-0.00560302
-2.449031e-008	-0.00080566
-2.446531e-008	0.000134281
-2.444031e-008	-0.00173339
-2.441531e-008	0.00325928
-2.439031e-008	0.00274659
-2.436531e-008	-0.000244137
-2.434031e-008	0.00305176
-2.431531e-008	-0.000305172
-2.429031e-008	-0.00340576
-2.426531e-008	-0.00163574
-2.424031e-008	-0.00279541
-2.421531e-008	-0.00219726
-2.419031e-008	0.000854496
-2.416531e-008	6.10389e-005
-2.414031e-008	-0.00449218
-2.411531e-008	-0.00689697
-2.409031e-008	-0.00273437
-2.406531e-008	0.00289307
-2.404031e-008	0.00124512
-2.401531e-008	-0.000183102
-2.399031e-008	0.000537113
-2.396531e-008	0.000207523
-2.394031e-008	0.00238037
-2.391531e-008	0.00335694
-2.389031e-008	0.00371094
-2.386531e-008	-2.44103e-005
-2.384031e-008	-0.00319824
-2.381531e-008	-0.0019165
-2.379031e-008	-0.00479736
-2.376531e-008	-0.00467529
-2.374031e-008	-0.000854488
-2.371531e-008	-0.00228271
-2.369031e-008	-0.00634765
-2.366531e-008	-0.00604248
-2.364031e-008	-0.00599365
-2.361531e-008	-0.00770263
-2.359031e-008	-0.00272216
-2.356531e-008	-0.000402828
-2.354031e-008	-0.00131836
-2.351531e-008	0.00196534
-2.349031e-008	0.00239258
-2.346531e-008	0.000708012
-2.344031e-008	-0.00338134
-2.341531e-008	-0.00574951
-2.339031e-008	-0.00428466
-2.336531e-008	-0.00321045
-2.334031e-008	0.00290528
-2.331531e-008	0.00209961
-2.329031e-008	-0.000659176
-2.326531e-008	0.00540772
-2.324031e-008	0.00302735
-2.321531e-008	0.00197754
-2.319031e-008	0.00556641
-2.316531e-008	0.00440674
-2.314031e-008	0.0032959
-2.311531e-008	-0.00433349
-2.309031e-008	-0.00651855
-2.306531e-008	0.000573734
-2.304031e-008	-0.00010986
-2.301531e-008	-0.0027832
-2.299031e-008	-0.00422363
-2.296531e-008	-0.00493164
-2.294031e-008	-0.00162353
-2.291531e-008	0.00184327
-2.289031e-008	0.000915531
-2.286531e-008	-0.00698242
-2.284031e-008	-0.00889892
-2.281531e-008	-0.00340576
-2.279031e-008	-0.000390621
-2.276531e-008	0.00648194
-2.274031e-008	0.0053833
-2.271531e-008	-0.00687255
-2.269031e-008	-0.00721435
-2.266531e-008	0.000109867
-2.264031e-008	-0.00178222
-2.261531e-008	-0.00836181
-2.259031e-008	-0.00618896
-2.256531e-008	0.00183106
-2.254031e-008	0.00501709
-2.251531e-008	0.000488285
-2.249031e-008	-0.00023193
-2.246531e-008	0.00494385
-2.244031e-008	0.000585941
-2.241531e-008	7.32459e-005
-2.239031e-008	0.00352784
-2.236531e-008	-0.00366211
-2.234031e-008	-0.00513916
-2.231531e-008	-0.0027832
-2.229031e-008	-0.00358886
-2.226531e-008	-0.0019165
-2.224031e-008	-0.0045166
-2.221531e-008	-0.0031372
-2.219031e-008	0.00334473
-2.216531e-008	-0.00240478
-2.214031e-008	-0.00388183
-2.211531e-008	0.0032959
-2.209031e-008	-0.00103759
-2.206531e-008	-0.00209961
-2.204031e-008	0.00411377