# LECROYWM813Zi	51496	Waveform
# Segments	1	SegmentSize	4002
# Segment	TrigTime	TimeSinceSegment1
# #1	30-Nov-2018 17:25:02	0                 
# Time	Ampl
-5.0013e-008	0.0231201
-4.9988e-008	0.0221436
-4.9963e-008	0.0130859
-4.9938e-008	0.00725098
-4.9913e-008	0.0269775
-4.9888e-008	0.0367432
-4.9863e-008	0.0236816
-4.9838e-008	0.0180664
-4.9813e-008	0.0236084
-4.9788e-008	0.0293701
-4.9763e-008	0.0211182
-4.9738e-008	0.0117188
-4.9713e-008	0.0177734
-4.9688e-008	0.015625
-4.9663e-008	-0.00327148
-4.9638e-008	-0.00290527
-4.9613e-008	0.0180908
-4.9588e-008	0.0220459
-4.9563e-008	0.0117676
-4.9538e-008	0.0091797
-4.9513e-008	0.0217285
-4.9488e-008	0.0243652
-4.9463e-008	0.0134766
-4.9438e-008	0.0221436
-4.9413e-008	0.0249024
-4.9388e-008	0.0195313
-4.9363e-008	0.0330078
-4.9338e-008	0.0320557
-4.9313e-008	0.0174316
-4.9288e-008	0.0197998
-4.9263e-008	0.0230713
-4.9238e-008	0.0198975
-4.9213e-008	0.0173096
-4.9188e-008	0.0204102
-4.9163e-008	0.0276856
-4.9138e-008	0.0132324
-4.9113e-008	0.00830079
-4.9088e-008	0.0212647
-4.9063e-008	0.0111816
-4.9038e-008	0.0156738
-4.9013e-008	0.0309326
-4.8988e-008	0.027002
-4.8963e-008	0.0241455
-4.8938e-008	0.0229248
-4.8913e-008	0.0237305
-4.8888e-008	0.0196289
-4.8863e-008	0.0157959
-4.8838e-008	0.0214844
-4.8813e-008	0.0210449
-4.8788e-008	0.0213867
-4.8763e-008	0.0268311
-4.8738e-008	0.0203613
-4.8713e-008	0.0156982
-4.8688e-008	0.0230713
-4.8663e-008	0.0179443
-4.8638e-008	0.0160889
-4.8613e-008	0.028125
-4.8588e-008	0.0285889
-4.8563e-008	0.0187012
-4.8538e-008	0.0155518
-4.8513e-008	0.0258789
-4.8488e-008	0.0252686
-4.8463e-008	0.0189941
-4.8438e-008	0.0303711
-4.8413e-008	0.0356934
-4.8388e-008	0.0315674
-4.8363e-008	0.0312744
-4.8338e-008	0.0262207
-4.8313e-008	0.0229736
-4.8288e-008	0.033374
-4.8263e-008	0.0311524
-4.8238e-008	0.0145264
-4.8213e-008	0.0123779
-4.8188e-008	0.0189697
-4.8163e-008	0.0248047
-4.8138e-008	0.0182373
-4.8113e-008	0.0227539
-4.8088e-008	0.0356445
-4.8063e-008	0.00632325
-4.8038e-008	0.00114747
-4.8013e-008	0.0307617
-4.7988e-008	0.0215576
-4.7963e-008	0.0105469
-4.7938e-008	0.0140869
-4.7913e-008	0.0218018
-4.7888e-008	0.0298828
-4.7863e-008	0.0248535
-4.7838e-008	0.0280274
-4.7813e-008	0.0276611
-4.7788e-008	0.0239014
-4.7763e-008	0.0286865
-4.7738e-008	0.0261231
-4.7713e-008	0.0261963
-4.7688e-008	0.0237305
-4.7663e-008	0.0116943
-4.7638e-008	0.00827637
-4.7613e-008	0.0142334
-4.7588e-008	0.0207031
-4.7563e-008	0.0250488
-4.7538e-008	0.0271729
-4.7513e-008	0.0308594
-4.7488e-008	0.0299316
-4.7463e-008	0.0207031
-4.7438e-008	0.0186279
-4.7413e-008	0.0213867
-4.7388e-008	0.0205078
-4.7363e-008	0.0234619
-4.7338e-008	0.0294922
-4.7313e-008	0.0360108
-4.7288e-008	0.0296631
-4.7263e-008	0.0148193
-4.7238e-008	0.0201172
-4.7213e-008	0.0275147
-4.7188e-008	0.0238037
-4.7163e-008	0.0286865
-4.7138e-008	0.0337647
-4.7113e-008	0.0347656
-4.7088e-008	0.029419
-4.7063e-008	0.0141113
-4.7038e-008	0.0134522
-4.7013e-008	0.0246582
-4.6988e-008	0.025293
-4.6963e-008	0.0238525
-4.6938e-008	0.0317871
-4.6913e-008	0.0350098
-4.6888e-008	0.0299316
-4.6863e-008	0.032544
-4.6838e-008	0.0303955
-4.6813e-008	0.0191406
-4.6788e-008	0.0206787
-4.6763e-008	0.0214111
-4.6738e-008	0.005542
-4.6713e-008	0.0131104
-4.6688e-008	0.0370117
-4.6663e-008	0.0237061
-4.6638e-008	0.0155029
-4.6613e-008	0.0245361
-4.6588e-008	0.0142822
-4.6563e-008	0.0252441
-4.6538e-008	0.0408691
-4.6513e-008	0.0293457
-4.6488e-008	0.017749
-4.6463e-008	0.00439454
-4.6438e-008	0.00695802
-4.6413e-008	0.0190186
-4.6388e-008	0.0169434
-4.6363e-008	0.0202149
-4.6338e-008	0.0216553
-4.6313e-008	0.0272705
-4.6288e-008	0.0366455
-4.6263e-008	0.0272461
-4.6238e-008	0.0185791
-4.6213e-008	0.023877
-4.6188e-008	0.0320313
-4.6163e-008	0.0236572
-4.6138e-008	0.0169678
-4.6113e-008	0.0346924
-4.6088e-008	0.0310303
-4.6063e-008	0.0110107
-4.6038e-008	0.0153076
-4.6013e-008	0.0134766
-4.5988e-008	0.00705567
-4.5963e-008	0.0238037
-4.5938e-008	0.0293945
-4.5913e-008	0.0249268
-4.5888e-008	0.0294922
-4.5863e-008	0.0143311
-4.5838e-008	0.00844727
-4.5813e-008	0.0314941
-4.5788e-008	0.0331299
-4.5763e-008	0.0181397
-4.5738e-008	0.0118164
-4.5713e-008	0.0140625
-4.5688e-008	0.0216797
-4.5663e-008	0.0206055
-4.5638e-008	0.0185059
-4.5613e-008	0.0183106
-4.5588e-008	0.010791
-4.5563e-008	0.0184326
-4.5538e-008	0.0336182
-4.5513e-008	0.0301758
-4.5488e-008	0.0227295
-4.5463e-008	0.0166016
-4.5438e-008	0.0162842
-4.5413e-008	0.0229492
-4.5388e-008	0.0237061
-4.5363e-008	0.0224609
-4.5338e-008	0.0166748
-4.5313e-008	0.0231934
-4.5288e-008	0.0318115
-4.5263e-008	0.0114746
-4.5238e-008	0.0117676
-4.5213e-008	0.0286865
-4.5188e-008	0.0237549
-4.5163e-008	0.0230225
-4.5138e-008	0.0128174
-4.5113e-008	0.00634766
-4.5088e-008	0.0227783
-4.5063e-008	0.0236084
-4.5038e-008	0.0156006
-4.5013e-008	0.0120117
-4.4988e-008	0.0179932
-4.4963e-008	0.0286621
-4.4938e-008	0.0244141
-4.4913e-008	0.0265381
-4.4888e-008	0.0294434
-4.4863e-008	0.0223389
-4.4838e-008	0.0238037
-4.4813e-008	0.0233887
-4.4788e-008	0.0199219
-4.4763e-008	0.0256348
-4.4738e-008	0.0273438
-4.4713e-008	0.0181641
-4.4688e-008	0.0192871
-4.4663e-008	0.0191406
-4.4638e-008	0.00871583
-4.4613e-008	0.0190674
-4.4588e-008	0.0264649
-4.4563e-008	0.0164307
-4.4538e-008	0.0170654
-4.4513e-008	0.0229248
-4.4488e-008	0.0234131
-4.4463e-008	0.0182129
-4.4438e-008	0.0212647
-4.4413e-008	0.0219727
-4.4388e-008	0.00893555
-4.4363e-008	0.0115723
-4.4338e-008	0.0125488
-4.4313e-008	0.00610352
-4.4288e-008	0.0144775
-4.4263e-008	0.0157227
-4.4238e-008	0.0118408
-4.4213e-008	0.0225098
-4.4188e-008	0.0304932
-4.4163e-008	0.0233887
-4.4138e-008	0.0208984
-4.4113e-008	0.0204102
-4.4088e-008	0.0237061
-4.4063e-008	0.0307373
-4.4038e-008	0.0201416
-4.4013e-008	0.0257324
-4.3988e-008	0.0332275
-4.3963e-008	0.0191895
-4.3938e-008	0.0214356
-4.3913e-008	0.027002
-4.3888e-008	0.0267334
-4.3863e-008	0.020459
-4.3838e-008	0.0148926
-4.3813e-008	0.0169434
-4.3788e-008	0.0148193
-4.3763e-008	0.0262695
-4.3738e-008	0.0226807
-4.3713e-008	0.00888673
-4.3688e-008	0.0242188
-4.3663e-008	0.0236328
-4.3638e-008	0.0147217
-4.3613e-008	0.024292
-4.3588e-008	0.0276611
-4.3563e-008	0.0188477
-4.3538e-008	0.0139893
-4.3513e-008	0.0367676
-4.3488e-008	0.0443848
-4.3463e-008	0.0198486
-4.3438e-008	0.0220703
-4.3413e-008	0.0358887
-4.3388e-008	0.028833
-4.3363e-008	0.0168457
-4.3338e-008	0.0186524
-4.3313e-008	0.0259522
-4.3288e-008	0.0168457
-4.3263e-008	0.0144531
-4.3238e-008	0.0262695
-4.3213e-008	0.022876
-4.3188e-008	0.0168945
-4.3163e-008	0.0185059
-4.3138e-008	0.0130127
-4.3113e-008	0.0187744
-4.3088e-008	0.0259033
-4.3063e-008	0.0173584
-4.3038e-008	0.0188965
-4.3013e-008	0.0148682
-4.2988e-008	0.0172119
-4.2963e-008	0.0307373
-4.2938e-008	0.0164795
-4.2913e-008	0.0186279
-4.2888e-008	0.0226318
-4.2863e-008	0.0081543
-4.2838e-008	0.033252
-4.2813e-008	0.0418457
-4.2788e-008	0.0171631
-4.2763e-008	0.01604
-4.2738e-008	0.0168945
-4.2713e-008	0.0237549
-4.2688e-008	0.0287354
-4.2663e-008	0.0114014
-4.2638e-008	0.00895997
-4.2613e-008	0.0239258
-4.2588e-008	0.0282227
-4.2563e-008	0.0250733
-4.2538e-008	0.0303711
-4.2513e-008	0.021167
-4.2488e-008	0.0119385
-4.2463e-008	0.0297119
-4.2438e-008	0.0251709
-4.2413e-008	0.0197266
-4.2388e-008	0.0299805
-4.2363e-008	0.0242432
-4.2338e-008	0.0244141
-4.2313e-008	0.0268799
-4.2288e-008	0.0326904
-4.2263e-008	0.0282471
-4.2238e-008	0.0179932
-4.2213e-008	0.0271484
-4.2188e-008	0.0227539
-4.2163e-008	0.018335
-4.2138e-008	0.0180664
-4.2113e-008	0.0195313
-4.2088e-008	0.0363525
-4.2063e-008	0.0317871
-4.2038e-008	0.0178711
-4.2013e-008	0.0185547
-4.1988e-008	0.023877
-4.1963e-008	0.0302002
-4.1938e-008	0.0270752
-4.1913e-008	0.0295654
-4.1888e-008	0.0330566
-4.1863e-008	0.0128418
-4.1838e-008	0.00595704
-4.1813e-008	0.00981446
-4.1788e-008	0.00305177
-4.1763e-008	0.0213867
-4.1738e-008	0.0278565
-4.1713e-008	0.0187012
-4.1688e-008	0.02854
-4.1663e-008	0.0171631
-4.1638e-008	0.0179443
-4.1613e-008	0.0372803
-4.1588e-008	0.0258789
-4.1563e-008	0.016626
-4.1538e-008	0.0174072
-4.1513e-008	0.0161377
-4.1488e-008	0.0181397
-4.1463e-008	0.0129883
-4.1438e-008	0.0097168
-4.1413e-008	0.0125732
-4.1388e-008	0.012085
-4.1363e-008	0.0150391
-4.1338e-008	0.0297363
-4.1313e-008	0.0440674
-4.1288e-008	0.0337158
-4.1263e-008	0.0156006
-4.1238e-008	0.0237061
-4.1213e-008	0.0299805
-4.1188e-008	0.0185547
-4.1163e-008	0.0200684
-4.1138e-008	0.0223877
-4.1113e-008	0.0143555
-4.1088e-008	0.0192383
-4.1063e-008	0.0253418
-4.1038e-008	0.0232178
-4.1013e-008	0.021582
-4.0988e-008	0.0184326
-4.0963e-008	0.0250733
-4.0938e-008	0.0190674
-4.0913e-008	0.00546876
-4.0888e-008	0.0165772
-4.0863e-008	0.01521
-4.0838e-008	0.0125244
-4.0813e-008	0.0218994
-4.0788e-008	0.0150391
-4.0763e-008	0.0137695
-4.0738e-008	0.0108887
-4.0713e-008	0.0115234
-4.0688e-008	0.0254395
-4.0663e-008	0.0162109
-4.0638e-008	0.00869141
-4.0613e-008	0.0107178
-4.0588e-008	0.0110352
-4.0563e-008	0.0280762
-4.0538e-008	0.020874
-4.0513e-008	0.0120117
-4.0488e-008	0.0369629
-4.0463e-008	0.031665
-4.0438e-008	0.0236328
-4.0413e-008	0.0402344
-4.0388e-008	0.0283691
-4.0363e-008	0.0153809
-4.0338e-008	0.00969239
-4.0313e-008	0.00690919
-4.0288e-008	0.0310791
-4.0263e-008	0.031665
-4.0238e-008	0.0165039
-4.0213e-008	0.0171143
-4.0188e-008	0.0180664
-4.0163e-008	0.0355469
-4.0138e-008	0.0272461
-4.0113e-008	0.0113037
-4.0088e-008	0.0304688
-4.0063e-008	0.0227051
-4.0038e-008	0.0155762
-4.0013e-008	0.0256836
-3.9988e-008	0.0207764
-3.9963e-008	0.0212891
-3.9938e-008	0.0145752
-3.9913e-008	0.0182129
-3.9888e-008	0.0298828
-3.9863e-008	0.0160889
-3.9838e-008	0.0154541
-3.9813e-008	0.0279297
-3.9788e-008	0.0278809
-3.9763e-008	0.0224121
-3.9738e-008	0.0098877
-3.9713e-008	0.0041504
-3.9688e-008	0.0179932
-3.9663e-008	0.0313721
-3.9638e-008	0.0259766
-3.9613e-008	0.0129395
-3.9588e-008	0.00617677
-3.9563e-008	0.0158691
-3.9538e-008	0.0335449
-3.9513e-008	0.0362549
-3.9488e-008	0.0299561
-3.9463e-008	0.0149658
-3.9438e-008	0.0065918
-3.9413e-008	0.0213623
-3.9388e-008	0.0267578
-3.9363e-008	0.01875
-3.9338e-008	0.0116211
-3.9313e-008	0.0167725
-3.9288e-008	0.0322998
-3.9263e-008	0.0265869
-3.9238e-008	0.0201904
-3.9213e-008	0.0309082
-3.9188e-008	0.0281738
-3.9163e-008	0.024707
-3.9138e-008	0.030835
-3.9113e-008	0.0303711
-3.9088e-008	0.0334717
-3.9063e-008	0.029419
-3.9038e-008	0.0179688
-3.9013e-008	0.0227295
-3.8988e-008	0.0280274
-3.8963e-008	0.0226807
-3.8938e-008	0.00842286
-3.8913e-008	0.010083
-3.8888e-008	0.0270264
-3.8863e-008	0.0179443
-3.8838e-008	0.0160645
-3.8813e-008	0.0279541
-3.8788e-008	0.0246826
-3.8763e-008	0.0293701
-3.8738e-008	0.0335205
-3.8713e-008	0.0344238
-3.8688e-008	0.0336426
-3.8663e-008	0.0224854
-3.8638e-008	0.0208984
-3.8613e-008	0.0167481
-3.8588e-008	0.0126465
-3.8563e-008	0.0248535
-3.8538e-008	0.0190674
-3.8513e-008	0.0125977
-3.8488e-008	0.0267822
-3.8463e-008	0.0182373
-3.8438e-008	0.00803223
-3.8413e-008	0.0250244
-3.8388e-008	0.037207
-3.8363e-008	0.0315186
-3.8338e-008	0.0175293
-3.8313e-008	0.0178223
-3.8288e-008	0.030127
-3.8263e-008	0.0269531
-3.8238e-008	0.0208984
-3.8213e-008	0.0264649
-3.8188e-008	0.0185303
-3.8163e-008	0.00725098
-3.8138e-008	0.0262451
-3.8113e-008	0.0398682
-3.8088e-008	0.0273438
-3.8063e-008	0.0189697
-3.8038e-008	0.0219482
-3.8013e-008	0.0254639
-3.7988e-008	0.0221924
-3.7963e-008	0.0273926
-3.7938e-008	0.032251
-3.7913e-008	0.0290283
-3.7888e-008	0.0277832
-3.7863e-008	0.0143066
-3.7838e-008	0.0178955
-3.7813e-008	0.0232666
-3.7788e-008	0.00212403
-3.7763e-008	0.00664063
-3.7738e-008	0.0182617
-3.7713e-008	0.0195068
-3.7688e-008	0.0252197
-3.7663e-008	0.0165772
-3.7638e-008	0.0209961
-3.7613e-008	0.0229492
-3.7588e-008	0.0116943
-3.7563e-008	0.0249024
-3.7538e-008	0.0252686
-3.7513e-008	0.0253418
-3.7488e-008	0.039624
-3.7463e-008	0.0274658
-3.7438e-008	0.0256836
-3.7413e-008	0.0296631
-3.7388e-008	0.0243408
-3.7363e-008	0.0269531
-3.7338e-008	0.0164063
-3.7313e-008	0.0239746
-3.7288e-008	0.0351074
-3.7263e-008	0.0199707
-3.7238e-008	0.0228027
-3.7213e-008	0.0270508
-3.7188e-008	0.0235596
-3.7163e-008	0.0277588
-3.7138e-008	0.0228027
-3.7113e-008	0.0156006
-3.7088e-008	0.0147949
-3.7063e-008	0.0211182
-3.7038e-008	0.0243897
-3.7013e-008	0.0244385
-3.6988e-008	0.0260986
-3.6963e-008	0.0255127
-3.6938e-008	0.0340332
-3.6913e-008	0.0270264
-3.6888e-008	0.0163574
-3.6863e-008	0.0268311
-3.6838e-008	0.0236328
-3.6813e-008	0.0237549
-3.6788e-008	0.0225586
-3.6763e-008	0.00756837
-3.6738e-008	0.0135742
-3.6713e-008	0.0259522
-3.6688e-008	0.0285889
-3.6663e-008	0.0208252
-3.6638e-008	0.0148193
-3.6613e-008	0.0208008
-3.6588e-008	0.0218994
-3.6563e-008	0.0258545
-3.6538e-008	0.0284668
-3.6513e-008	0.0268555
-3.6488e-008	0.0238525
-3.6463e-008	0.0103516
-3.6438e-008	0.0144287
-3.6413e-008	0.0201416
-3.6388e-008	0.0137451
-3.6363e-008	0.0287842
-3.6338e-008	0.0271484
-3.6313e-008	0.019165
-3.6288e-008	0.0277832
-3.6263e-008	0.00285645
-3.6238e-008	-0.00126952
-3.6213e-008	0.0256592
-3.6188e-008	0.0155762
-3.6163e-008	0.0135254
-3.6138e-008	0.0288086
-3.6113e-008	0.0245606
-3.6088e-008	0.0192383
-3.6063e-008	0.0139404
-3.6038e-008	0.0178711
-3.6013e-008	0.0333252
-3.5988e-008	0.0248047
-3.5963e-008	0.0105713
-3.5938e-008	0.0154297
-3.5913e-008	0.0250488
-3.5888e-008	0.0298584
-3.5863e-008	0.0209229
-3.5838e-008	0.020166
-3.5813e-008	0.0247559
-3.5788e-008	0.0102295
-3.5763e-008	0.010791
-3.5738e-008	0.0156982
-3.5713e-008	0.010376
-3.5688e-008	0.0218506
-3.5663e-008	0.0196533
-3.5638e-008	0.00617677
-3.5613e-008	0.0081543
-3.5588e-008	0.0145752
-3.5563e-008	0.0221924
-3.5538e-008	0.00549317
-3.5513e-008	0.00019532
-3.5488e-008	0.0360352
-3.5463e-008	0.0378906
-3.5438e-008	0.0175293
-3.5413e-008	0.0158936
-3.5388e-008	0.0122315
-3.5363e-008	0.0208252
-3.5338e-008	0.0226563
-3.5313e-008	0.015918
-3.5288e-008	0.0324463
-3.5263e-008	0.0293213
-3.5238e-008	0.0166748
-3.5213e-008	0.0174561
-3.5188e-008	0.010669
-3.5163e-008	0.0226563
-3.5138e-008	0.0279053
-3.5113e-008	0.0241455
-3.5088e-008	0.0315186
-3.5063e-008	0.0126953
-3.5038e-008	0.00600587
-3.5013e-008	0.0199951
-3.4988e-008	0.0184326
-3.4963e-008	0.0181152
-3.4938e-008	0.0172119
-3.4913e-008	0.0225342
-3.4888e-008	0.0280518
-3.4863e-008	-4.88207e-005
-3.4838e-008	-0.00905761
-3.4813e-008	0.0300049
-3.4788e-008	0.030127
-3.4763e-008	0.00712891
-3.4738e-008	0.0126221
-3.4713e-008	0.0174805
-3.4688e-008	0.0409424
-3.4663e-008	0.0506592
-3.4638e-008	0.026001
-3.4613e-008	0.0238525
-3.4588e-008	0.027832
-3.4563e-008	0.0234619
-3.4538e-008	0.0157715
-3.4513e-008	0.00964356
-3.4488e-008	0.0153809
-3.4463e-008	0.0107666
-3.4438e-008	0.0110596
-3.4413e-008	0.030249
-3.4388e-008	0.0358154
-3.4363e-008	0.0241699
-3.4338e-008	0.0180176
-3.4313e-008	0.0257813
-3.4288e-008	0.0267334
-3.4263e-008	0.0155274
-3.4238e-008	0.0121094
-3.4213e-008	0.0184815
-3.4188e-008	0.0261475
-3.4163e-008	0.0213379
-3.4138e-008	0.016626
-3.4113e-008	0.0343018
-3.4088e-008	0.0449951
-3.4063e-008	0.0205566
-3.4038e-008	0.00383302
-3.4013e-008	0.0226563
-3.3988e-008	0.0261719
-3.3963e-008	0.0156738
-3.3938e-008	0.0195801
-3.3913e-008	0.0166992
-3.3888e-008	0.0112793
-3.3863e-008	0.0123535
-3.3838e-008	0.0213135
-3.3813e-008	0.0250488
-3.3788e-008	0.0173584
-3.3763e-008	0.0225098
-3.3738e-008	0.0201904
-3.3713e-008	0.0141602
-3.3688e-008	0.0319336
-3.3663e-008	0.0287354
-3.3638e-008	0.00996095
-3.3613e-008	0.0285889
-3.3588e-008	0.0319336
-3.3563e-008	0.00266114
-3.3538e-008	0.0098877
-3.3513e-008	0.0316406
-3.3488e-008	0.0355713
-3.3463e-008	0.0320557
-3.3438e-008	0.0192627
-3.3413e-008	0.0145264
-3.3388e-008	0.0173584
-3.3363e-008	0.0186279
-3.3338e-008	0.018042
-3.3313e-008	0.018042
-3.3288e-008	0.0284668
-3.3263e-008	0.0331787
-3.3238e-008	0.0280029
-3.3213e-008	0.0249268
-3.3188e-008	0.0201416
-3.3163e-008	0.00842286
-3.3138e-008	0.00349122
-3.3113e-008	0.0272949
-3.3088e-008	0.0377197
-3.3063e-008	0.0132568
-3.3038e-008	0.0166504
-3.3013e-008	0.034668
-3.2988e-008	0.0247559
-3.2963e-008	0.0175049
-3.2938e-008	0.0252197
-3.2913e-008	0.0304688
-3.2888e-008	0.0270752
-3.2863e-008	0.0203369
-3.2838e-008	0.0243408
-3.2813e-008	0.0313965
-3.2788e-008	0.0165039
-3.2763e-008	0.0122803
-3.2738e-008	0.026416
-3.2713e-008	0.0160156
-3.2688e-008	0.0237549
-3.2663e-008	0.0395508
-3.2638e-008	0.0185791
-3.2613e-008	0.0174072
-3.2588e-008	0.025708
-3.2563e-008	0.0161621
-3.2538e-008	0.0186279
-3.2513e-008	0.0294678
-3.2488e-008	0.037207
-3.2463e-008	0.0254883
-3.2438e-008	0.00915528
-3.2413e-008	0.0223877
-3.2388e-008	0.0296875
-3.2363e-008	0.01604
-3.2338e-008	0.0253662
-3.2313e-008	0.0405518
-3.2288e-008	0.0359375
-3.2263e-008	0.030249
-3.2238e-008	0.0200195
-3.2213e-008	0.0174316
-3.2188e-008	0.0243408
-3.2163e-008	0.0106445
-3.2138e-008	0.00209962
-3.2113e-008	0.0185547
-3.2088e-008	0.0234131
-3.2063e-008	0.0162109
-3.2038e-008	0.022168
-3.2013e-008	0.0207764
-3.1988e-008	0.0116455
-3.1963e-008	0.0209961
-3.1938e-008	0.0232178
-3.1913e-008	0.0170654
-3.1888e-008	0.0157959
-3.1863e-008	0.00715333
-3.1838e-008	0.0131592
-3.1813e-008	0.0210205
-3.1788e-008	0.0159912
-3.1763e-008	0.0258301
-3.1738e-008	0.0345703
-3.1713e-008	0.027417
-3.1688e-008	0.0127686
-3.1663e-008	-0.000854485
-3.1638e-008	0.00937501
-3.1613e-008	0.0287109
-3.1588e-008	0.0230225
-3.1563e-008	0.0157227
-3.1538e-008	0.0217285
-3.1513e-008	0.0229736
-3.1488e-008	0.0252686
-3.1463e-008	0.0179932
-3.1438e-008	0.0091797
-3.1413e-008	0.0201172
-3.1388e-008	0.0205566
-3.1363e-008	0.0199219
-3.1338e-008	0.0276367
-3.1313e-008	0.0261719
-3.1288e-008	0.0318115
-3.1263e-008	0.0265381
-3.1238e-008	0.0126953
-3.1213e-008	0.0204834
-3.1188e-008	0.0272949
-3.1163e-008	0.0231934
-3.1138e-008	0.0213379
-3.1113e-008	0.0220947
-3.1088e-008	0.0178467
-3.1063e-008	0.0129395
-3.1038e-008	0.0197998
-3.1013e-008	0.0181152
-3.0988e-008	0.00383302
-3.0963e-008	0.00219727
-3.0938e-008	0.0108399
-3.0913e-008	0.0212158
-3.0888e-008	0.0304688
-3.0863e-008	0.0275635
-3.0838e-008	0.0157715
-3.0813e-008	0.0090088
-3.0788e-008	0.0118897
-3.0763e-008	0.0113525
-3.0738e-008	0.000805672
-3.0713e-008	0.0133789
-3.0688e-008	0.0288574
-3.0663e-008	0.0101563
-3.0638e-008	0.0083252
-3.0613e-008	0.0180664
-3.0588e-008	0.0164307
-3.0563e-008	0.0264893
-3.0538e-008	0.0229981
-3.0513e-008	0.0170654
-3.0488e-008	0.0244385
-3.0463e-008	0.0150391
-3.0438e-008	0.00993653
-3.0413e-008	0.0181885
-3.0388e-008	0.0188232
-3.0363e-008	0.0244873
-3.0338e-008	0.0264404
-3.0313e-008	0.0262695
-3.0288e-008	0.0309815
-3.0263e-008	0.0157227
-3.0238e-008	0.0128906
-3.0213e-008	0.021875
-3.0188e-008	0.0128174
-3.0163e-008	0.0151123
-3.0138e-008	0.0186279
-3.0113e-008	0.0239258
-3.0088e-008	0.0314453
-3.0063e-008	0.019458
-3.0038e-008	0.0209717
-3.0013e-008	0.0300293
-2.9988e-008	0.0200928
-2.9963e-008	0.0160645
-2.9938e-008	0.0218506
-2.9913e-008	0.0229981
-2.9888e-008	0.019458
-2.9863e-008	0.00881348
-2.9838e-008	0.00607911
-2.9813e-008	0.0196289
-2.9788e-008	0.0268555
-2.9763e-008	0.0317383
-2.9738e-008	0.0381592
-2.9713e-008	0.0290527
-2.9688e-008	0.0211426
-2.9663e-008	0.024707
-2.9638e-008	0.020166
-2.9613e-008	0.0137695
-2.9588e-008	0.0220459
-2.9563e-008	0.0331055
-2.9538e-008	0.0349609
-2.9513e-008	0.03479
-2.9488e-008	0.0368408
-2.9463e-008	0.0305664
-2.9438e-008	0.019165
-2.9413e-008	0.0165283
-2.9388e-008	0.0130371
-2.9363e-008	0.00781251
-2.9338e-008	0.0132568
-2.9313e-008	0.0258301
-2.9288e-008	0.0260254
-2.9263e-008	0.00859376
-2.9238e-008	0.00625001
-2.9213e-008	0.0166992
-2.9188e-008	0.0249268
-2.9163e-008	0.0377197
-2.9138e-008	0.0316406
-2.9113e-008	0.0247315
-2.9088e-008	0.0255127
-2.9063e-008	0.011084
-2.9038e-008	0.0170166
-2.9013e-008	0.0258057
-2.8988e-008	0.0148193
-2.8963e-008	0.0231201
-2.8938e-008	0.0251465
-2.8913e-008	0.0156982
-2.8888e-008	0.020752
-2.8863e-008	0.0198486
-2.8838e-008	0.0253418
-2.8813e-008	0.0229248
-2.8788e-008	0.0117676
-2.8763e-008	0.0329834
-2.8738e-008	0.0342774
-2.8713e-008	0.0155274
-2.8688e-008	0.0187256
-2.8663e-008	0.0147949
-2.8638e-008	0.0168701
-2.8613e-008	0.0241699
-2.8588e-008	0.0224854
-2.8563e-008	0.02229
-2.8538e-008	0.0125244
-2.8513e-008	0.0187744
-2.8488e-008	0.0319336
-2.8463e-008	0.0136475
-2.8438e-008	0.0098877
-2.8413e-008	0.0248535
-2.8388e-008	0.0155274
-2.8363e-008	0.0107178
-2.8338e-008	0.0184326
-2.8313e-008	0.0206055
-2.8288e-008	0.0284668
-2.8263e-008	0.0262451
-2.8238e-008	0.0072754
-2.8213e-008	0.00439454
-2.8188e-008	0.016626
-2.8163e-008	0.0189697
-2.8138e-008	0.0259522
-2.8113e-008	0.0313721
-2.8088e-008	0.0179443
-2.8063e-008	0.0198975
-2.8038e-008	0.0318115
-2.8013e-008	0.0291748
-2.7988e-008	0.0225098
-2.7963e-008	0.0224365
-2.7938e-008	0.0375
-2.7913e-008	0.0400147
-2.7888e-008	0.0224121
-2.7863e-008	0.0199951
-2.7838e-008	0.0213379
-2.7813e-008	0.0112305
-2.7788e-008	0.0136963
-2.7763e-008	0.0235107
-2.7738e-008	0.0163086
-2.7713e-008	0.0125244
-2.7688e-008	0.0300049
-2.7663e-008	0.0324219
-2.7638e-008	0.0149414
-2.7613e-008	0.0154785
-2.7588e-008	0.0202881
-2.7563e-008	0.0155762
-2.7538e-008	0.0175049
-2.7513e-008	0.0216065
-2.7488e-008	0.0257324
-2.7463e-008	0.0238037
-2.7438e-008	0.022168
-2.7413e-008	0.0244141
-2.7388e-008	0.0167725
-2.7363e-008	0.0229492
-2.7338e-008	0.032666
-2.7313e-008	0.0266846
-2.7288e-008	0.0311279
-2.7263e-008	0.0205078
-2.7238e-008	0.00488282
-2.7213e-008	0.0235352
-2.7188e-008	0.0281983
-2.7163e-008	0.0154541
-2.7138e-008	0.013501
-2.7113e-008	0.0147705
-2.7088e-008	0.0213379
-2.7063e-008	0.0202149
-2.7038e-008	0.021582
-2.7013e-008	0.020874
-2.6988e-008	0.0141357
-2.6963e-008	0.0265625
-2.6938e-008	0.0236328
-2.6913e-008	0.015332
-2.6888e-008	0.0215576
-2.6863e-008	0.00881348
-2.6838e-008	0.00766602
-2.6813e-008	0.0269531
-2.6788e-008	0.0268311
-2.6763e-008	0.0180664
-2.6738e-008	0.0169678
-2.6713e-008	0.0220947
-2.6688e-008	0.027832
-2.6663e-008	0.0177246
-2.6638e-008	0.0167236
-2.6613e-008	0.0336182
-2.6588e-008	0.030542
-2.6563e-008	0.015332
-2.6538e-008	0.0119873
-2.6513e-008	0.0191895
-2.6488e-008	0.0197266
-2.6463e-008	0.023169
-2.6438e-008	0.0249024
-2.6413e-008	0.00573731
-2.6388e-008	0.014209
-2.6363e-008	0.0322998
-2.6338e-008	0.023584
-2.6313e-008	0.0206543
-2.6288e-008	0.0157959
-2.6263e-008	0.0053711
-2.6238e-008	0.00878907
-2.6213e-008	0.0293701
-2.6188e-008	0.0345459
-2.6163e-008	0.0217774
-2.6138e-008	0.0191162
-2.6113e-008	0.0119873
-2.6088e-008	0.021582
-2.6063e-008	0.0368897
-2.6038e-008	0.0246826
-2.6013e-008	0.0197022
-2.5988e-008	0.0181885
-2.5963e-008	0.0182129
-2.5938e-008	0.0237305
-2.5913e-008	0.0217774
-2.5888e-008	0.0296631
-2.5863e-008	0.0266602
-2.5838e-008	0.0150879
-2.5813e-008	0.0192139
-2.5788e-008	0.0146484
-2.5763e-008	0.00944825
-2.5738e-008	0.0162842
-2.5713e-008	0.0296387
-2.5688e-008	0.0322022
-2.5663e-008	0.0175781
-2.5638e-008	0.0187744
-2.5613e-008	0.0271973
-2.5588e-008	0.030957
-2.5563e-008	0.0311524
-2.5538e-008	0.0209961
-2.5513e-008	0.024707
-2.5488e-008	0.026001
-2.5463e-008	0.00673829
-2.5438e-008	0.00146485
-2.5413e-008	0.0112549
-2.5388e-008	0.0129883
-2.5363e-008	0.0131592
-2.5338e-008	0.0168945
-2.5313e-008	0.0227539
-2.5288e-008	0.0296143
-2.5263e-008	0.0154053
-2.5238e-008	0.00512696
-2.5213e-008	0.0150879
-2.5188e-008	0.0150635
-2.5163e-008	0.0183594
-2.5138e-008	0.0134766
-2.5113e-008	0.0108643
-2.5088e-008	0.033252
-2.5063e-008	0.0306152
-2.5038e-008	0.0159912
-2.5013e-008	0.0183838
-2.4988e-008	0.0187744
-2.4963e-008	0.0177734
-2.4938e-008	0.0147461
-2.4913e-008	0.0211182
-2.4888e-008	0.0251709
-2.4863e-008	0.011499
-2.4838e-008	0.0173828
-2.4813e-008	0.0234863
-2.4788e-008	0.0127197
-2.4763e-008	0.0181641
-2.4738e-008	0.0156494
-2.4713e-008	0.0175049
-2.4688e-008	0.0355713
-2.4663e-008	0.0219727
-2.4638e-008	0.00898438
-2.4613e-008	0.0156006
-2.4588e-008	0.0100098
-2.4563e-008	0.00822755
-2.4538e-008	0.0142334
-2.4513e-008	0.0182861
-2.4488e-008	0.0201172
-2.4463e-008	0.0132813
-2.4438e-008	0.0150391
-2.4413e-008	0.0309326
-2.4388e-008	0.0229004
-2.4363e-008	0.000390632
-2.4338e-008	0.00852052
-2.4313e-008	0.0243408
-2.4288e-008	0.0254883
-2.4263e-008	0.0182129
-2.4238e-008	0.00666505
-2.4213e-008	0.0165283
-2.4188e-008	0.0320068
-2.4163e-008	0.0266602
-2.4138e-008	0.0201416
-2.4113e-008	0.020874
-2.4088e-008	0.0234619
-2.4063e-008	0.0225342
-2.4038e-008	0.0169434
-2.4013e-008	0.0223145
-2.3988e-008	0.0216797
-2.3963e-008	0.000512703
-2.3938e-008	0.0126709
-2.3913e-008	0.0359619
-2.3888e-008	0.0265137
-2.3863e-008	0.0336182
-2.3838e-008	0.0314941
-2.3813e-008	0.00603028
-2.3788e-008	0.0149658
-2.3763e-008	0.0227783
-2.3738e-008	0.00903321
-2.3713e-008	0.0137695
-2.3688e-008	0.0202393
-2.3663e-008	0.0188232
-2.3638e-008	0.0188477
-2.3613e-008	0.0100098
-2.3588e-008	0.0138428
-2.3563e-008	0.0231445
-2.3538e-008	0.0256348
-2.3513e-008	0.0387451
-2.3488e-008	0.0330566
-2.3463e-008	0.0166016
-2.3438e-008	0.0234619
-2.3413e-008	0.0296387
-2.3388e-008	0.0164307
-2.3363e-008	0.0121338
-2.3338e-008	0.0245361
-2.3313e-008	0.0272217
-2.3288e-008	0.027124
-2.3263e-008	0.0155762
-2.3238e-008	0.0100098
-2.3213e-008	0.0285889
-2.3188e-008	0.0136231
-2.3163e-008	0.00895997
-2.3138e-008	0.0370606
-2.3113e-008	0.0293457
-2.3088e-008	0.0240967
-2.3063e-008	0.0279297
-2.3038e-008	0.0160645
-2.3013e-008	0.0222168
-2.2988e-008	0.0194092
-2.2963e-008	0.00280762
-2.2938e-008	0.00964356
-2.2913e-008	0.014624
-2.2888e-008	0.00844727
-2.2863e-008	0.0122559
-2.2838e-008	0.0177246
-2.2813e-008	0.02229
-2.2788e-008	0.0268311
-2.2763e-008	0.0221924
-2.2738e-008	0.0163086
-2.2713e-008	0.0262207
-2.2688e-008	0.0363525
-2.2663e-008	0.0155029
-2.2638e-008	0.00319825
-2.2613e-008	0.0174316
-2.2588e-008	0.0153809
-2.2563e-008	0.0142334
-2.2538e-008	0.0192383
-2.2513e-008	0.0314453
-2.2488e-008	0.0438965
-2.2463e-008	0.0185303
-2.2438e-008	0.00739747
-2.2413e-008	0.0222168
-2.2388e-008	0.0223389
-2.2363e-008	0.0256836
-2.2338e-008	0.0165527
-2.2313e-008	0.00239259
-2.2288e-008	0.0206055
-2.2263e-008	0.0328125
-2.2238e-008	0.020044
-2.2213e-008	0.0201172
-2.2188e-008	0.0283691
-2.2163e-008	0.0241699
-2.2138e-008	0.0135742
-2.2113e-008	0.0189697
-2.2088e-008	0.0361816
-2.2063e-008	0.0238525
-2.2038e-008	0.0110596
-2.2013e-008	0.0183594
-2.1988e-008	0.0160889
-2.1963e-008	0.0199951
-2.1938e-008	0.0196045
-2.1913e-008	0.0255371
-2.1888e-008	0.0448242
-2.1863e-008	0.0233643
-2.1838e-008	0.00170899
-2.1813e-008	0.0188477
-2.1788e-008	0.0280518
-2.1763e-008	0.0227783
-2.1738e-008	0.0209229
-2.1713e-008	0.0279297
-2.1688e-008	0.0353272
-2.1663e-008	0.0296631
-2.1638e-008	0.0236572
-2.1613e-008	0.021875
-2.1588e-008	0.0202149
-2.1563e-008	0.0205078
-2.1538e-008	0.0161133
-2.1513e-008	0.0254883
-2.1488e-008	0.0383057
-2.1463e-008	0.0226563
-2.1438e-008	0.0159668
-2.1413e-008	0.0267822
-2.1388e-008	0.0263916
-2.1363e-008	0.0226807
-2.1338e-008	0.0219971
-2.1313e-008	0.0218262
-2.1288e-008	0.0133545
-2.1263e-008	0.00795899
-2.1238e-008	0.0189697
-2.1213e-008	0.0273438
-2.1188e-008	0.0242188
-2.1163e-008	0.0181397
-2.1138e-008	0.0198975
-2.1113e-008	0.0242432
-2.1088e-008	0.020874
-2.1063e-008	0.00793458
-2.1038e-008	0.00341798
-2.1013e-008	0.0264404
-2.0988e-008	0.0371826
-2.0963e-008	0.0246582
-2.0938e-008	0.0237793
-2.0913e-008	0.0150879
-2.0888e-008	0.00524903
-2.0863e-008	0.019751
-2.0838e-008	0.0233399
-2.0813e-008	0.0187256
-2.0788e-008	0.0263428
-2.0763e-008	0.0236816
-2.0738e-008	0.0236572
-2.0713e-008	0.0295899
-2.0688e-008	0.027002
-2.0663e-008	0.0273682
-2.0638e-008	0.0280029
-2.0613e-008	0.0300049
-2.0588e-008	0.0255859
-2.0563e-008	0.0184815
-2.0538e-008	0.0177002
-2.0513e-008	0.01521
-2.0488e-008	0.0207031
-2.0463e-008	0.0191895
-2.0438e-008	0.0166016
-2.0413e-008	0.026709
-2.0388e-008	0.0276367
-2.0363e-008	0.0233154
-2.0338e-008	0.0184082
-2.0313e-008	0.021167
-2.0288e-008	0.021167
-2.0263e-008	0.0106934
-2.0238e-008	0.0185059
-2.0213e-008	0.0267334
-2.0188e-008	0.0254883
-2.0163e-008	0.0314209
-2.0138e-008	0.0252441
-2.0113e-008	0.0193115
-2.0088e-008	0.0266113
-2.0063e-008	0.0230469
-2.0038e-008	0.0228272
-2.0013e-008	0.0271484
-1.9988e-008	0.0237061
-1.9963e-008	0.0294678
-1.9938e-008	0.0276611
-1.9913e-008	0.0239746
-1.9888e-008	0.032544
-1.9863e-008	0.0192871
-1.9838e-008	0.00541993
-1.9813e-008	0.0190674
-1.9788e-008	0.0244629
-1.9763e-008	0.0131592
-1.9738e-008	0.00983887
-1.9713e-008	0.0187256
-1.9688e-008	0.0305908
-1.9663e-008	0.0318115
-1.9638e-008	0.0256836
-1.9613e-008	0.0292725
-1.9588e-008	0.0287354
-1.9563e-008	0.0243164
-1.9538e-008	0.0274414
-1.9513e-008	0.025708
-1.9488e-008	0.0240723
-1.9463e-008	0.0229004
-1.9438e-008	0.0207031
-1.9413e-008	0.0206299
-1.9388e-008	0.018457
-1.9363e-008	0.0282471
-1.9338e-008	0.0333984
-1.9313e-008	0.0228516
-1.9288e-008	0.020166
-1.9263e-008	0.012793
-1.9238e-008	0.0140381
-1.9213e-008	0.0328858
-1.9188e-008	0.031665
-1.9163e-008	0.0143066
-1.9138e-008	0.00405274
-1.9113e-008	0.0194092
-1.9088e-008	0.0394531
-1.9063e-008	0.0283447
-1.9038e-008	0.0226074
-1.9013e-008	0.0310303
-1.8988e-008	0.0234863
-1.8963e-008	0.0173828
-1.8938e-008	0.0176758
-1.8913e-008	0.0157959
-1.8888e-008	0.0216309
-1.8863e-008	0.011792
-1.8838e-008	-0.0043457
-1.8813e-008	0.0187012
-1.8788e-008	0.0379395
-1.8763e-008	0.0242676
-1.8738e-008	0.0184082
-1.8713e-008	0.0262207
-1.8688e-008	0.0255615
-1.8663e-008	0.0158203
-1.8638e-008	0.016919
-1.8613e-008	0.0255371
-1.8588e-008	0.0297119
-1.8563e-008	0.0246582
-1.8538e-008	0.0223877
-1.8513e-008	0.0353516
-1.8488e-008	0.0341553
-1.8463e-008	0.0220215
-1.8438e-008	0.0206055
-1.8413e-008	0.0185303
-1.8388e-008	0.0227295
-1.8363e-008	0.0310059
-1.8338e-008	0.024292
-1.8313e-008	0.0180176
-1.8288e-008	0.0222168
-1.8263e-008	0.0210693
-1.8238e-008	0.0158936
-1.8213e-008	0.0188232
-1.8188e-008	0.0253906
-1.8163e-008	0.0264649
-1.8138e-008	0.0259522
-1.8113e-008	0.0240967
-1.8088e-008	0.0205811
-1.8063e-008	0.0167969
-1.8038e-008	0.0175537
-1.8013e-008	0.0306397
-1.7988e-008	0.0313477
-1.7963e-008	0.0173828
-1.7938e-008	0.0118652
-1.7913e-008	0.0146973
-1.7888e-008	0.0223389
-1.7863e-008	0.0197998
-1.7838e-008	0.0142822
-1.7813e-008	0.0201904
-1.7788e-008	0.0265381
-1.7763e-008	0.0244385
-1.7738e-008	0.0178467
-1.7713e-008	0.0256104
-1.7688e-008	0.0261231
-1.7663e-008	0.0141846
-1.7638e-008	0.0232666
-1.7613e-008	0.0298584
-1.7588e-008	0.0218994