# LECROYWM813Zi	51496	Waveform
# Segments	1	SegmentSize	4002
# Segment	TrigTime	TimeSinceSegment1
# #1	30-Nov-2018 17:24:38	0                 
# Time	Ampl
-5.001211e-008	0.0213623
-4.998711e-008	0.0266846
-4.996211e-008	0.0212158
-4.993711e-008	0.0200684
-4.991211e-008	0.0160156
-4.988711e-008	0.0169434
-4.986211e-008	0.034375
-4.983711e-008	0.0304443
-4.981211e-008	0.0226318
-4.978711e-008	0.0245361
-4.976211e-008	0.0216553
-4.973711e-008	0.0261963
-4.971211e-008	0.0198486
-4.968711e-008	0.0193604
-4.966211e-008	0.0317383
-4.963711e-008	0.0303711
-4.961211e-008	0.0278809
-4.958711e-008	0.0165772
-4.956211e-008	0.012793
-4.953711e-008	0.0221924
-4.951211e-008	0.0215088
-4.948711e-008	0.0218262
-4.946211e-008	0.0171875
-4.943711e-008	0.0219971
-4.941211e-008	0.0270752
-4.938711e-008	0.0158691
-4.936211e-008	0.020044
-4.933711e-008	0.0282715
-4.931211e-008	0.0246338
-4.928711e-008	0.012207
-4.926211e-008	0.00800782
-4.923711e-008	0.0189453
-4.921211e-008	0.016626
-4.918711e-008	0.00253907
-4.916211e-008	-0.00429687
-4.913711e-008	0.00854493
-4.911211e-008	0.025708
-4.908711e-008	0.0195068
-4.906211e-008	0.0131592
-4.903711e-008	0.0220215
-4.901211e-008	0.0254883
-4.898711e-008	0.0260742
-4.896211e-008	0.0246582
-4.893711e-008	0.0170654
-4.891211e-008	0.0195801
-4.888711e-008	0.0272705
-4.886211e-008	0.0283691
-4.883711e-008	0.0246826
-4.881211e-008	0.0170899
-4.878711e-008	0.0130127
-4.876211e-008	0.0208496
-4.873711e-008	0.0314941
-4.871211e-008	0.0318848
-4.868711e-008	0.0344483
-4.866211e-008	0.0334229
-4.863711e-008	0.0254883
-4.861211e-008	0.0262451
-4.858711e-008	0.0204346
-4.856211e-008	0.0212402
-4.853711e-008	0.0241943
-4.851211e-008	0.00939942
-4.848711e-008	0.0180908
-4.846211e-008	0.0324951
-4.843711e-008	0.0299805
-4.841211e-008	0.0337647
-4.838711e-008	0.0195068
-4.836211e-008	0.00949708
-4.833711e-008	0.025293
-4.831211e-008	0.0243408
-4.828711e-008	0.0230469
-4.826211e-008	0.0264649
-4.823711e-008	0.0229492
-4.821211e-008	0.0334473
-4.818711e-008	0.0293213
-4.816211e-008	0.0206055
-4.813711e-008	0.0274414
-4.811211e-008	0.0209473
-4.808711e-008	0.0225098
-4.806211e-008	0.0256348
-4.803711e-008	0.0141357
-4.801211e-008	0.0140625
-4.798711e-008	0.0262451
-4.796211e-008	0.0321777
-4.793711e-008	0.0184815
-4.791211e-008	0.0163818
-4.788711e-008	0.0311279
-4.786211e-008	0.0277588
-4.783711e-008	0.0220947
-4.781211e-008	0.02229
-4.778711e-008	0.0194336
-4.776211e-008	0.0193604
-4.773711e-008	0.0206299
-4.771211e-008	0.0251709
-4.768711e-008	0.0318604
-4.766211e-008	0.0246338
-4.763711e-008	0.0123047
-4.761211e-008	0.0148926
-4.758711e-008	0.0154297
-4.756211e-008	0.011792
-4.753711e-008	0.0109619
-4.751211e-008	0.00986329
-4.748711e-008	0.0114502
-4.746211e-008	0.0207764
-4.743711e-008	0.0350342
-4.741211e-008	0.022168
-4.738711e-008	0.00878907
-4.736211e-008	0.0192383
-4.733711e-008	0.0216797
-4.731211e-008	0.0278076
-4.728711e-008	0.0256348
-4.726211e-008	0.0213379
-4.723711e-008	0.0372315
-4.721211e-008	0.0326172
-4.718711e-008	0.0110352
-4.716211e-008	0.00908204
-4.713711e-008	0.0233154
-4.711211e-008	0.0318604
-4.708711e-008	0.0285645
-4.706211e-008	0.0222168
-4.703711e-008	0.0194824
-4.701211e-008	0.020752
-4.698711e-008	0.0216065
-4.696211e-008	0.0271729
-4.693711e-008	0.0237793
-4.691211e-008	0.0133789
-4.688711e-008	0.0255371
-4.686211e-008	0.0362549
-4.683711e-008	0.0244629
-4.681211e-008	0.00957032
-4.678711e-008	0.00952149
-4.676211e-008	0.0217774
-4.673711e-008	0.0201172
-4.671211e-008	0.0149658
-4.668711e-008	0.0218994
-4.666211e-008	0.0252441
-4.663711e-008	0.0231445
-4.661211e-008	0.0223633
-4.658711e-008	0.0265625
-4.656211e-008	0.0282715
-4.653711e-008	0.0277344
-4.651211e-008	0.021167
-4.648711e-008	0.0105225
-4.646211e-008	0.0178223
-4.643711e-008	0.0238281
-4.641211e-008	0.0207275
-4.638711e-008	0.0203369
-4.636211e-008	0.0211914
-4.633711e-008	0.0267822
-4.631211e-008	0.0249268
-4.628711e-008	0.0205078
-4.626211e-008	0.0219971
-4.623711e-008	0.0289063
-4.621211e-008	0.0311768
-4.618711e-008	0.0186035
-4.616211e-008	0.0147461
-4.613711e-008	0.0164307
-4.611211e-008	0.0193848
-4.608711e-008	0.0239258
-4.606211e-008	0.0176514
-4.603711e-008	0.020874
-4.601211e-008	0.0206787
-4.598711e-008	0.00979005
-4.596211e-008	0.0184326
-4.593711e-008	0.0258301
-4.591211e-008	0.0195313
-4.588711e-008	0.0137451
-4.586211e-008	0.0112793
-4.583711e-008	0.0239502
-4.581211e-008	0.0311035
-4.578711e-008	0.0243652
-4.576211e-008	0.0251953
-4.573711e-008	0.0148438
-4.571211e-008	0.00732423
-4.568711e-008	0.0248291
-4.566211e-008	0.0327637
-4.563711e-008	0.0312256
-4.561211e-008	0.0325195
-4.558711e-008	0.0217529
-4.556211e-008	0.0164063
-4.553711e-008	0.0228516
-4.551211e-008	0.0229004
-4.548711e-008	0.0213379
-4.546211e-008	0.0161865
-4.543711e-008	0.0206299
-4.541211e-008	0.0361084
-4.538711e-008	0.0298096
-4.536211e-008	0.0206543
-4.533711e-008	0.0173828
-4.531211e-008	0.0162842
-4.528711e-008	0.0322754
-4.526211e-008	0.0344971
-4.523711e-008	0.0319824
-4.521211e-008	0.0380127
-4.518711e-008	0.0238525
-4.516211e-008	0.0146484
-4.513711e-008	0.0216797
-4.511211e-008	0.0212402
-4.508711e-008	0.0154785
-4.506211e-008	0.0192627
-4.503711e-008	0.0239014
-4.501211e-008	0.00981446
-4.498711e-008	0.00566407
-4.496211e-008	0.01604
-4.493711e-008	0.0132568
-4.491211e-008	0.0114258
-4.488711e-008	0.0211914
-4.486211e-008	0.0311279
-4.483711e-008	0.0312256
-4.481211e-008	0.0258057
-4.478711e-008	0.0104736
-4.476211e-008	-0.00168456
-4.473711e-008	0.0179688
-4.471211e-008	0.0360596
-4.468711e-008	0.0257813
-4.466211e-008	0.0129883
-4.463711e-008	0.018335
-4.461211e-008	0.0250488
-4.458711e-008	0.0205811
-4.456211e-008	0.0206299
-4.453711e-008	0.0178711
-4.451211e-008	0.0187256
-4.448711e-008	0.0240479
-4.446211e-008	0.0184082
-4.443711e-008	0.0207275
-4.441211e-008	0.0235596
-4.438711e-008	0.0223389
-4.436211e-008	0.0261475
-4.433711e-008	0.0157959
-4.431211e-008	0.0081543
-4.428711e-008	0.0237061
-4.426211e-008	0.0328613
-4.423711e-008	0.0285645
-4.421211e-008	0.0279785
-4.418711e-008	0.0187988
-4.416211e-008	0.00825196
-4.413711e-008	0.00895997
-4.411211e-008	0.0119873
-4.408711e-008	0.0155029
-4.406211e-008	0.0171631
-4.403711e-008	0.0300049
-4.401211e-008	0.0311768
-4.398711e-008	0.00729981
-4.396211e-008	0.0126221
-4.393711e-008	0.035669
-4.391211e-008	0.026416
-4.388711e-008	0.00100098
-4.386211e-008	0.00236817
-4.383711e-008	0.02229
-4.381211e-008	0.0208496
-4.378711e-008	0.0133057
-4.376211e-008	0.0224609
-4.373711e-008	0.018335
-4.371211e-008	0.000244148
-4.368711e-008	0.00729981
-4.366211e-008	0.0176025
-4.363711e-008	0.0124024
-4.361211e-008	0.0188721
-4.358711e-008	0.0218262
-4.356211e-008	0.017041
-4.353711e-008	0.023169
-4.351211e-008	0.0307861
-4.348711e-008	0.0273193
-4.346211e-008	0.0177002
-4.343711e-008	0.0212402
-4.341211e-008	0.0288818
-4.338711e-008	0.0190918
-4.336211e-008	0.0133301
-4.333711e-008	0.0244385
-4.331211e-008	0.028418
-4.328711e-008	0.0265137
-4.326211e-008	0.0249756
-4.323711e-008	0.0209473
-4.321211e-008	0.0223145
-4.318711e-008	0.0201416
-4.316211e-008	0.0167236
-4.313711e-008	0.0216065
-4.311211e-008	0.0235596
-4.308711e-008	0.0149902
-4.306211e-008	0.0101074
-4.303711e-008	0.0216553
-4.301211e-008	0.0246826
-4.298711e-008	0.0154785
-4.296211e-008	0.0238281
-4.293711e-008	0.0332275
-4.291211e-008	0.0247315
-4.288711e-008	0.0242188
-4.286211e-008	0.0237061
-4.283711e-008	0.0264649
-4.281211e-008	0.0421143
-4.278711e-008	0.0260742
-4.276211e-008	0.0134277
-4.273711e-008	0.0193848
-4.271211e-008	0.00820313
-4.268711e-008	0.0208496
-4.266211e-008	0.0306885
-4.263711e-008	0.0228516
-4.261211e-008	0.031543
-4.258711e-008	0.0250733
-4.256211e-008	0.0156982
-4.253711e-008	0.0178711
-4.251211e-008	0.0170166
-4.248711e-008	0.0224121
-4.246211e-008	0.0150635
-4.243711e-008	0.00852052
-4.241211e-008	0.0244629
-4.238711e-008	0.0233399
-4.236211e-008	0.0168457
-4.233711e-008	0.0214356
-4.231211e-008	0.0175537
-4.228711e-008	0.0178223
-4.226211e-008	0.0160645
-4.223711e-008	0.0158203
-4.221211e-008	0.0200195
-4.218711e-008	0.0171875
-4.216211e-008	0.0190674
-4.213711e-008	0.018042
-4.211211e-008	0.0217285
-4.208711e-008	0.026001
-4.206211e-008	0.013208
-4.203711e-008	0.0180176
-4.201211e-008	0.0369873
-4.198711e-008	0.030542
-4.196211e-008	0.0213867
-4.193711e-008	0.0232422
-4.191211e-008	0.0169434
-4.188711e-008	0.0229004
-4.186211e-008	0.0256592
-4.183711e-008	0.0188232
-4.181211e-008	0.0324463
-4.178711e-008	0.0265381
-4.176211e-008	0.0203369
-4.173711e-008	0.0308838
-4.171211e-008	0.0225586
-4.168711e-008	0.0207764
-4.166211e-008	0.012207
-4.163711e-008	0.00974122
-4.161211e-008	0.0251465
-4.158711e-008	0.0186768
-4.156211e-008	0.0156494
-4.153711e-008	0.0291016
-4.151211e-008	0.0385498
-4.148711e-008	0.0234863
-4.146211e-008	0.0119141
-4.143711e-008	0.0315918
-4.141211e-008	0.0301514
-4.138711e-008	0.013794
-4.136211e-008	0.0221436
-4.133711e-008	0.0354736
-4.131211e-008	0.0263672
-4.128711e-008	0.0104248
-4.126211e-008	0.0182617
-4.123711e-008	0.0303223
-4.121211e-008	0.0275879
-4.118711e-008	0.0226807
-4.116211e-008	0.0248047
-4.113711e-008	0.0231201
-4.111211e-008	0.0127441
-4.108711e-008	0.0122803
-4.106211e-008	0.0164795
-4.103711e-008	0.0174316
-4.101211e-008	0.019165
-4.098711e-008	0.00788575
-4.096211e-008	0.0034668
-4.093711e-008	0.0243164
-4.091211e-008	0.0328369
-4.088711e-008	0.0237305
-4.086211e-008	0.0195801
-4.083711e-008	0.0249512
-4.081211e-008	0.0268066
-4.078711e-008	0.0162109
-4.076211e-008	0.0161377
-4.073711e-008	0.0226318
-4.071211e-008	0.0229736
-4.068711e-008	0.0125488
-4.066211e-008	0.00410157
-4.063711e-008	0.0237793
-4.061211e-008	0.0282959
-4.058711e-008	0.0177002
-4.056211e-008	0.024292
-4.053711e-008	0.0264404
-4.051211e-008	0.0282715
-4.048711e-008	0.0224365
-4.046211e-008	0.014502
-4.043711e-008	0.0255859
-4.041211e-008	0.0289307
-4.038711e-008	0.0182129
-4.036211e-008	0.0148926
-4.033711e-008	0.0177734
-4.031211e-008	0.0131592
-4.028711e-008	0.0108643
-4.026211e-008	0.0211182
-4.023711e-008	0.0280274
-4.021211e-008	0.0243652
-4.018711e-008	0.0189941
-4.016211e-008	0.0183106
-4.013711e-008	0.0188721
-4.011211e-008	0.0154053
-4.008711e-008	0.0126221
-4.006211e-008	0.0155518
-4.003711e-008	0.0261231
-4.001211e-008	0.0301514
-3.998711e-008	0.0161621
-3.996211e-008	0.0185547
-3.993711e-008	0.0348145
-3.991211e-008	0.0267334
-3.988711e-008	0.0176758
-3.986211e-008	0.0178223
-3.983711e-008	0.0185547
-3.981211e-008	0.0265869
-3.978711e-008	0.024292
-3.976211e-008	0.0203857
-3.973711e-008	0.0251709
-3.971211e-008	0.0230713
-3.968711e-008	0.0266846
-3.966211e-008	0.0221191
-3.963711e-008	0.00581055
-3.961211e-008	0.0164551
-3.958711e-008	0.0242432
-3.956211e-008	0.0184082
-3.953711e-008	0.0231445
-3.951211e-008	0.0209473
-3.948711e-008	0.0286377
-3.946211e-008	0.0336914
-3.943711e-008	0.0134033
-3.941211e-008	0.0130127
-3.938711e-008	0.0317627
-3.936211e-008	0.0228516
-3.933711e-008	-0.000122063
-3.931211e-008	0.0137695
-3.928711e-008	0.0372559
-3.926211e-008	0.0260742
-3.923711e-008	0.0175537
-3.921211e-008	0.0227295
-3.918711e-008	0.0203613
-3.916211e-008	0.0208984
-3.913711e-008	0.0262451
-3.911211e-008	0.0245361
-3.908711e-008	0.00915528
-3.906211e-008	0.00668946
-3.903711e-008	0.0273926
-3.901211e-008	0.0270264
-3.898711e-008	0.0145752
-3.896211e-008	0.0210205
-3.893711e-008	0.0227051
-3.891211e-008	0.0171631
-3.888711e-008	0.0251465
-3.886211e-008	0.0301514
-3.883711e-008	0.02229
-3.881211e-008	0.0217529
-3.878711e-008	0.0193848
-3.876211e-008	0.0150635
-3.873711e-008	0.0222412
-3.871211e-008	0.0190918
-3.868711e-008	0.019165
-3.866211e-008	0.0261475
-3.863711e-008	0.0227051
-3.861211e-008	0.0314453
-3.858711e-008	0.0183106
-3.856211e-008	-0.0066162
-3.853711e-008	0.0120606
-3.851211e-008	0.024292
-3.848711e-008	0.0291016
-3.846211e-008	0.0341309
-3.843711e-008	0.012085
-3.841211e-008	0.0155518
-3.838711e-008	0.0321777
-3.836211e-008	0.0267334
-3.833711e-008	0.0244385
-3.831211e-008	0.0179199
-3.828711e-008	0.012793
-3.826211e-008	0.0239746
-3.823711e-008	0.0337647
-3.821211e-008	0.0257568
-3.818711e-008	0.0137207
-3.816211e-008	0.0213135
-3.813711e-008	0.0317139
-3.811211e-008	0.0288086
-3.808711e-008	0.0255127
-3.806211e-008	0.026001
-3.803711e-008	0.0303711
-3.801211e-008	0.0226318
-3.798711e-008	0.00610352
-3.796211e-008	0.0115479
-3.793711e-008	0.0214844
-3.791211e-008	0.0212158
-3.788711e-008	0.0203857
-3.786211e-008	0.0158447
-3.783711e-008	0.0152832
-3.781211e-008	0.0249268
-3.778711e-008	0.0323242
-3.776211e-008	0.0222168
-3.773711e-008	0.0110352
-3.771211e-008	0.018335
-3.768711e-008	0.0157227
-3.766211e-008	-0.00146484
-3.763711e-008	0.0153809
-3.761211e-008	0.0373779
-3.758711e-008	0.0204834
-3.756211e-008	0.0150391
-3.753711e-008	0.0205811
-3.751211e-008	0.0196289
-3.748711e-008	0.0252197
-3.746211e-008	0.0195313
-3.743711e-008	0.0217285
-3.741211e-008	0.0359131
-3.738711e-008	0.0394775
-3.736211e-008	0.0241943
-3.733711e-008	0.00551759
-3.731211e-008	0.0130859
-3.728711e-008	0.0183594
-3.726211e-008	0.0186768
-3.723711e-008	0.0290772
-3.721211e-008	0.0244385
-3.718711e-008	0.0116211
-3.716211e-008	0.00991212
-3.713711e-008	0.0319824
-3.711211e-008	0.0431397
-3.708711e-008	0.0274658
-3.706211e-008	0.0292725
-3.703711e-008	0.0297363
-3.701211e-008	0.0187988
-3.698711e-008	0.0152832
-3.696211e-008	0.019751
-3.693711e-008	0.0298828
-3.691211e-008	0.0259033
-3.688711e-008	0.0283691
-3.686211e-008	0.0296875
-3.683711e-008	0.0147217
-3.681211e-008	0.023999
-3.678711e-008	0.0215332
-3.676211e-008	0.00737305
-3.673711e-008	0.0201904
-3.671211e-008	0.014502
-3.668711e-008	0.017334
-3.666211e-008	0.0363525
-3.663711e-008	0.0240967
-3.661211e-008	0.020044
-3.658711e-008	0.0227295
-3.656211e-008	0.0161865
-3.653711e-008	0.0211426
-3.651211e-008	0.0264404
-3.648711e-008	0.027124
-3.646211e-008	0.0214844
-3.643711e-008	0.0238525
-3.641211e-008	0.0290039
-3.638711e-008	0.0199219
-3.636211e-008	0.0272949
-3.633711e-008	0.0388428
-3.631211e-008	0.0239014
-3.628711e-008	0.0164795
-3.626211e-008	0.0282715
-3.623711e-008	0.0315674
-3.621211e-008	0.0272949
-3.618711e-008	0.0184326
-3.616211e-008	0.0110596
-3.613711e-008	0.0216309
-3.611211e-008	0.0274902
-3.608711e-008	0.0248535
-3.606211e-008	0.0339111
-3.603711e-008	0.0346436
-3.601211e-008	0.0185303
-3.598711e-008	0.00871583
-3.596211e-008	0.0160156
-3.593711e-008	0.0262207
-3.591211e-008	0.0241455
-3.588711e-008	0.016333
-3.586211e-008	0.0150391
-3.583711e-008	0.0245361
-3.581211e-008	0.0230225
-3.578711e-008	0.0111328
-3.576211e-008	0.0174316
-3.573711e-008	0.0269043
-3.571211e-008	0.0274414
-3.568711e-008	0.0214356
-3.566211e-008	0.0171631
-3.563711e-008	0.03125
-3.561211e-008	0.0327149
-3.558711e-008	0.00441895
-3.556211e-008	0.00156251
-3.553711e-008	0.0318115
-3.551211e-008	0.0358643
-3.548711e-008	0.0291992
-3.546211e-008	0.0332275
-3.543711e-008	0.0285156
-3.541211e-008	0.0302246
-3.538711e-008	0.0255371
-3.536211e-008	0.0181641
-3.533711e-008	0.0200195
-3.531211e-008	0.0172852
-3.528711e-008	0.0278076
-3.526211e-008	0.0291992
-3.523711e-008	0.0205078
-3.521211e-008	0.0213623
-3.518711e-008	0.00961915
-3.516211e-008	0.0218506
-3.513711e-008	0.0341065
-3.511211e-008	0.0161377
-3.508711e-008	0.0238037
-3.506211e-008	0.0151856
-3.503711e-008	0.00288087
-3.501211e-008	0.0283691
-3.498711e-008	0.0260498
-3.496211e-008	0.0210693
-3.493711e-008	0.0259766
-3.491211e-008	0.00712891
-3.488711e-008	0.0141113
-3.486211e-008	0.0389649
-3.483711e-008	0.0301514
-3.481211e-008	0.00825196
-3.478711e-008	0.00302735
-3.476211e-008	0.0147461
-3.473711e-008	0.0249024
-3.471211e-008	0.0198731
-3.468711e-008	0.0206055
-3.466211e-008	0.027417
-3.463711e-008	0.023169
-3.461211e-008	0.019165
-3.458711e-008	0.0219727
-3.456211e-008	0.0265137
-3.453711e-008	0.02771
-3.451211e-008	0.0241455
-3.448711e-008	0.0180176
-3.446211e-008	0.0154053
-3.443711e-008	0.017627
-3.441211e-008	0.0180908
-3.438711e-008	0.0176758
-3.436211e-008	0.0161865
-3.433711e-008	0.0188965
-3.431211e-008	0.0272949
-3.428711e-008	0.0317627
-3.426211e-008	0.0275635
-3.423711e-008	0.0296875
-3.421211e-008	0.0379883
-3.418711e-008	0.0231934
-3.416211e-008	0.0143555
-3.413711e-008	0.0236084
-3.411211e-008	0.0165039
-3.408711e-008	0.0140381
-3.406211e-008	0.0207031
-3.403711e-008	0.0230713
-3.401211e-008	0.0289795
-3.398711e-008	0.0354248
-3.396211e-008	0.0400879
-3.393711e-008	0.0307129
-3.391211e-008	0.0113037
-3.388711e-008	0.0174316
-3.386211e-008	0.028833
-3.383711e-008	0.0102295
-3.381211e-008	0.00720216
-3.378711e-008	0.0127686
-3.376211e-008	-0.000341789
-3.373711e-008	0.0168701
-3.371211e-008	0.0350586
-3.368711e-008	0.0168457
-3.366211e-008	0.00756837
-3.363711e-008	0.0165772
-3.361211e-008	0.0236084
-3.358711e-008	0.027124
-3.356211e-008	0.0270264
-3.353711e-008	0.014917
-3.351211e-008	0.00483399
-3.348711e-008	0.0191162
-3.346211e-008	0.0275879
-3.343711e-008	0.0151367
-3.341211e-008	0.0152832
-3.338711e-008	0.0176758
-3.336211e-008	0.0184082
-3.333711e-008	0.0269775
-3.331211e-008	0.016919
-3.328711e-008	0.0134277
-3.326211e-008	0.0268311
-3.323711e-008	0.0277832
-3.321211e-008	0.0317383
-3.318711e-008	0.0303711
-3.316211e-008	0.0218262
-3.313711e-008	0.0226563
-3.311211e-008	0.0152588
-3.308711e-008	0.0133057
-3.306211e-008	0.0195068
-3.303711e-008	0.0274414
-3.301211e-008	0.0460205
-3.298711e-008	0.0274414
-3.296211e-008	0.00603028
-3.293711e-008	0.0262695
-3.291211e-008	0.0218506
-3.288711e-008	0.0165527
-3.286211e-008	0.0253662
-3.283711e-008	0.0213867
-3.281211e-008	0.0291504
-3.278711e-008	0.0306152
-3.276211e-008	0.0283691
-3.273711e-008	0.0248535
-3.271211e-008	0.0147217
-3.268711e-008	0.0203125
-3.266211e-008	0.0225586
-3.263711e-008	0.0198486
-3.261211e-008	0.0216065
-3.258711e-008	0.0214111
-3.256211e-008	0.0215332
-3.253711e-008	0.0238525
-3.251211e-008	0.0342774
-3.248711e-008	0.0371826
-3.246211e-008	0.0330322
-3.243711e-008	0.0411377
-3.241211e-008	0.035669
-3.238711e-008	0.00935059
-3.236211e-008	0.00681153
-3.233711e-008	0.0238525
-3.231211e-008	0.0220703
-3.228711e-008	0.0177734
-3.226211e-008	0.0244629
-3.223711e-008	0.0291016
-3.221211e-008	0.0283447
-3.218711e-008	0.0185791
-3.216211e-008	0.0174316
-3.213711e-008	0.0301514
-3.211211e-008	0.029541
-3.208711e-008	0.0185059
-3.206211e-008	0.014209
-3.203711e-008	0.0178223
-3.201211e-008	0.0289795
-3.198711e-008	0.0313477
-3.196211e-008	0.0183594
-3.193711e-008	0.0175537
-3.191211e-008	0.0259766
-3.188711e-008	0.0226074
-3.186211e-008	0.0220459
-3.183711e-008	0.0222656
-3.181211e-008	0.0159912
-3.178711e-008	0.0226318
-3.176211e-008	0.023584
-3.173711e-008	0.0186279
-3.171211e-008	0.030127
-3.168711e-008	0.0253418
-3.166211e-008	0.0208252
-3.163711e-008	0.0332764
-3.161211e-008	0.0278565
-3.158711e-008	0.0204102
-3.156211e-008	0.020874
-3.153711e-008	0.0276367
-3.151211e-008	0.0306641
-3.148711e-008	0.0167725
-3.146211e-008	0.013794
-3.143711e-008	0.0241943
-3.141211e-008	0.0278809
-3.138711e-008	0.0195068
-3.136211e-008	0.0141357
-3.133711e-008	0.0217529
-3.131211e-008	0.0192139
-3.128711e-008	0.0072754
-3.126211e-008	0.0167725
-3.123711e-008	0.0368164
-3.121211e-008	0.031665
-3.118711e-008	0.0196533
-3.116211e-008	0.0161133
-3.113711e-008	0.0102783
-3.111211e-008	0.0154297
-3.108711e-008	0.0233399
-3.106211e-008	0.0220947
-3.103711e-008	0.0260986
-3.101211e-008	0.0237793
-3.098711e-008	0.0130371
-3.096211e-008	0.0246094
-3.093711e-008	0.0289551
-3.091211e-008	0.0148682
-3.088711e-008	0.023999
-3.086211e-008	0.0276611
-3.083711e-008	0.0266602
-3.081211e-008	0.0383301
-3.078711e-008	0.0259277
-3.076211e-008	0.0218506
-3.073711e-008	0.0431152
-3.071211e-008	0.0420654
-3.068711e-008	0.0270508
-3.066211e-008	0.0130859
-3.063711e-008	0.00629884
-3.061211e-008	0.0180176
-3.058711e-008	0.0174805
-3.056211e-008	0.0144775
-3.053711e-008	0.0300049
-3.051211e-008	0.0282715
-3.048711e-008	0.0175537
-3.046211e-008	0.0213867
-3.043711e-008	0.0230225
-3.041211e-008	0.0211914
-3.038711e-008	0.0221191
-3.036211e-008	0.0222656
-3.033711e-008	0.0239502
-3.031211e-008	0.022583
-3.028711e-008	0.0241943
-3.026211e-008	0.0276123
-3.023711e-008	0.0209229
-3.021211e-008	0.0288574
-3.018711e-008	0.0296631
-3.016211e-008	0.0065918
-3.013711e-008	0.0138672
-3.011211e-008	0.0315186
-3.008711e-008	0.0313721
-3.006211e-008	0.0281983
-3.003711e-008	0.0178223
-3.001211e-008	0.0213135
-2.998711e-008	0.0244873
-2.996211e-008	0.0158936
-2.993711e-008	0.0216553
-2.991211e-008	0.0193604
-2.988711e-008	0.013794
-2.986211e-008	0.0155518
-2.983711e-008	0.0113037
-2.981211e-008	0.0167481
-2.978711e-008	0.0206299
-2.976211e-008	0.0179688
-2.973711e-008	0.025293
-2.971211e-008	0.0317383
-2.968711e-008	0.0328613
-2.966211e-008	0.0328858
-2.963711e-008	0.025708
-2.961211e-008	0.0162598
-2.958711e-008	0.0145996
-2.956211e-008	0.0181885
-2.953711e-008	0.0287354
-2.951211e-008	0.0339356
-2.948711e-008	0.0226074
-2.946211e-008	0.0160645
-2.943711e-008	0.018042
-2.941211e-008	0.0131836
-2.938711e-008	0.0112061
-2.936211e-008	0.0302734
-2.933711e-008	0.0450195
-2.931211e-008	0.0272949
-2.928711e-008	0.0101074
-2.926211e-008	0.0177734
-2.923711e-008	0.0309082
-2.921211e-008	0.0298828
-2.918711e-008	0.0198731
-2.916211e-008	0.0237061
-2.913711e-008	0.0311524
-2.911211e-008	0.0231201
-2.908711e-008	0.0162842
-2.906211e-008	0.0236816
-2.903711e-008	0.0307861
-2.901211e-008	0.0236084
-2.898711e-008	0.0202393
-2.896211e-008	0.0266358
-2.893711e-008	0.0216797
-2.891211e-008	0.0172852
-2.888711e-008	0.0172363
-2.886211e-008	0.0114014
-2.883711e-008	0.0239258
-2.881211e-008	0.0258057
-2.878711e-008	0.000341804
-2.876211e-008	0.00639649
-2.873711e-008	0.0244385
-2.871211e-008	0.0226074
-2.868711e-008	0.0217285
-2.866211e-008	0.0208008
-2.863711e-008	0.0258789
-2.861211e-008	0.030127
-2.858711e-008	0.0192383
-2.856211e-008	0.012915
-2.853711e-008	0.0233643
-2.851211e-008	0.0294922
-2.848711e-008	0.0220947
-2.846211e-008	0.0217774
-2.843711e-008	0.0264893
-2.841211e-008	0.0188477
-2.838711e-008	0.0156006
-2.836211e-008	0.0265381
-2.833711e-008	0.0279053
-2.831211e-008	0.0243408
-2.828711e-008	0.0259766
-2.826211e-008	0.028833
-2.823711e-008	0.0371826
-2.821211e-008	0.0263916
-2.818711e-008	0.0109863
-2.816211e-008	0.0257568
-2.813711e-008	0.0294434
-2.811211e-008	0.0147949
-2.808711e-008	0.0218994
-2.806211e-008	0.0311524
-2.803711e-008	0.023877
-2.801211e-008	0.0286621
-2.798711e-008	0.0364014
-2.796211e-008	0.0245361
-2.793711e-008	0.0225586
-2.791211e-008	0.0287354
-2.788711e-008	0.0181885
-2.786211e-008	0.0128418
-2.783711e-008	0.0166504
-2.781211e-008	0.0198731
-2.778711e-008	0.0188721
-2.776211e-008	0.0114258
-2.773711e-008	0.0217774
-2.771211e-008	0.0299805
-2.768711e-008	0.0253662
-2.766211e-008	0.0291748
-2.763711e-008	0.0204346
-2.761211e-008	0.0148438
-2.758711e-008	0.0158936
-2.756211e-008	0.0106445
-2.753711e-008	0.0228027
-2.751211e-008	0.0287354
-2.748711e-008	0.0288574
-2.746211e-008	0.0302246
-2.743711e-008	0.0182861
-2.741211e-008	0.0207031
-2.738711e-008	0.0164307
-2.736211e-008	0.00683595
-2.733711e-008	0.0249512
-2.731211e-008	0.0250244
-2.728711e-008	0.0177246
-2.726211e-008	0.0311035
-2.723711e-008	0.0301514
-2.721211e-008	0.0219727
-2.718711e-008	0.0155518
-2.716211e-008	0.0180908
-2.713711e-008	0.0356445
-2.711211e-008	0.0347412
-2.708711e-008	0.0215088
-2.706211e-008	0.0220703
-2.703711e-008	0.0324219
-2.701211e-008	0.0385986
-2.698711e-008	0.0265869
-2.696211e-008	0.0114014
-2.693711e-008	0.0107666
-2.691211e-008	0.0180176
-2.688711e-008	0.0280274
-2.686211e-008	0.0297363
-2.683711e-008	0.0257568
-2.681211e-008	0.0186768
-2.678711e-008	0.0104492
-2.676211e-008	0.019165
-2.673711e-008	0.0213867
-2.671211e-008	0.016333
-2.668711e-008	0.0260742
-2.666211e-008	0.035083
-2.663711e-008	0.0305176
-2.661211e-008	0.0136963
-2.658711e-008	0.0175049
-2.656211e-008	0.0321289
-2.653711e-008	0.0240479
-2.651211e-008	0.0105469
-2.648711e-008	0.00742188
-2.646211e-008	0.0181885
-2.643711e-008	0.0250244
-2.641211e-008	0.0215332
-2.638711e-008	0.00720216
-2.636211e-008	-0.00344238
-2.633711e-008	0.0108643
-2.631211e-008	0.0165772
-2.628711e-008	0.0212891
-2.626211e-008	0.0269043
-2.623711e-008	0.0181641
-2.621211e-008	0.0230469
-2.618711e-008	0.0172119
-2.616211e-008	0.0119385
-2.613711e-008	0.0289795
-2.611211e-008	0.0264649
-2.608711e-008	0.0215332
-2.606211e-008	0.0194824
-2.603711e-008	0.0140137
-2.601211e-008	0.0301025
-2.598711e-008	0.0280029
-2.596211e-008	0.0136231
-2.593711e-008	0.0240723
-2.591211e-008	0.0268311
-2.588711e-008	0.0322754
-2.586211e-008	0.0358154
-2.583711e-008	0.0240723
-2.581211e-008	0.0328613
-2.578711e-008	0.0327149
-2.576211e-008	0.0173828
-2.573711e-008	0.0197022
-2.571211e-008	0.0204834
-2.568711e-008	0.021582
-2.566211e-008	0.0246338
-2.563711e-008	0.0311768
-2.561211e-008	0.0446289
-2.558711e-008	0.0344238
-2.556211e-008	0.0236084
-2.553711e-008	0.0279785
-2.551211e-008	0.0162598
-2.548711e-008	0.0165527
-2.546211e-008	0.0269043
-2.543711e-008	0.0177979
-2.541211e-008	0.0132813
-2.538711e-008	0.00627442
-2.536211e-008	0.0123535
-2.533711e-008	0.0368164
-2.531211e-008	0.031665
-2.528711e-008	0.0279297
-2.526211e-008	0.0272705
-2.523711e-008	0.0174805
-2.521211e-008	0.0265869
-2.518711e-008	0.0233643
-2.516211e-008	0.0208252
-2.513711e-008	0.0284668
-2.511211e-008	0.0204346
-2.508711e-008	0.016919
-2.506211e-008	0.0185547
-2.503711e-008	0.0235107
-2.501211e-008	0.0347168
-2.498711e-008	0.0338135
-2.496211e-008	0.0224609
-2.493711e-008	0.0181397
-2.491211e-008	0.0207031
-2.488711e-008	0.0279541
-2.486211e-008	0.0285889
-2.483711e-008	0.0230225
-2.481211e-008	0.0328858
-2.478711e-008	0.0299072
-2.476211e-008	0.0202149
-2.473711e-008	0.0228272
-2.471211e-008	0.0101318
-2.468711e-008	0.0218018
-2.466211e-008	0.0409424
-2.463711e-008	0.0192871
-2.461211e-008	0.0111816
-2.458711e-008	0.020752
-2.456211e-008	0.0224609
-2.453711e-008	0.0217529
-2.451211e-008	0.0283936
-2.448711e-008	0.0420166
-2.446211e-008	0.021875
-2.443711e-008	0.00979005
-2.441211e-008	0.0321777
-2.438711e-008	0.0203857
-2.436211e-008	0.0152832
-2.433711e-008	0.0371338
-2.431211e-008	0.0311279
-2.428711e-008	0.0266602
-2.426211e-008	0.0324951
-2.423711e-008	0.0268311
-2.421211e-008	0.0213135
-2.418711e-008	0.0166748
-2.416211e-008	0.0138916
-2.413711e-008	0.0176758
-2.411211e-008	0.0231934
-2.408711e-008	0.0291504
-2.406211e-008	0.0354492
-2.403711e-008	0.0298828
-2.401211e-008	0.0172607
-2.398711e-008	0.0159912
-2.396211e-008	0.0167236
-2.393711e-008	0.0189209
-2.391211e-008	0.0256104
-2.388711e-008	0.0243164
-2.386211e-008	0.0272705
-2.383711e-008	0.0375244
-2.381211e-008	0.0301514
-2.378711e-008	0.013794
-2.376211e-008	0.0191162
-2.373711e-008	0.0231445
-2.371211e-008	0.0178711
-2.368711e-008	0.0290527
-2.366211e-008	0.0261963
-2.363711e-008	0.012793
-2.361211e-008	0.0175049
-2.358711e-008	0.0212647
-2.356211e-008	0.0173096
-2.353711e-008	0.0117676
-2.351211e-008	0.0156982
-2.348711e-008	0.0176514
-2.346211e-008	0.0142334
-2.343711e-008	0.0304688
-2.341211e-008	0.0371582
-2.338711e-008	0.0204346
-2.336211e-008	0.0161621
-2.333711e-008	0.0244629
-2.331211e-008	0.0319092
-2.328711e-008	0.03479
-2.326211e-008	0.0160889
-2.323711e-008	0.00541993
-2.321211e-008	0.0273193
-2.318711e-008	0.0255859
-2.316211e-008	0.0155274
-2.313711e-008	0.0314941
-2.311211e-008	0.02854
-2.308711e-008	0.0190186
-2.306211e-008	0.0231445
-2.303711e-008	0.0265625
-2.301211e-008	0.0242676
-2.298711e-008	0.0132568
-2.296211e-008	0.00993653
-2.293711e-008	0.0115723
-2.291211e-008	0.0139404
-2.288711e-008	0.0219238
-2.286211e-008	0.0266113
-2.283711e-008	0.0339844
-2.281211e-008	0.0238525
-2.278711e-008	0.00109864
-2.276211e-008	0.0155029
-2.273711e-008	0.0317627
-2.271211e-008	0.0230469
-2.268711e-008	0.0224365
-2.266211e-008	0.018042
-2.263711e-008	0.0212647
-2.261211e-008	0.031665
-2.258711e-008	0.0198731
-2.256211e-008	0.0140625
-2.253711e-008	0.0208008
-2.251211e-008	0.0220459
-2.248711e-008	0.0186768
-2.246211e-008	0.019751
-2.243711e-008	0.0272705
-2.241211e-008	0.0230225
-2.238711e-008	0.0201172
-2.236211e-008	0.0266602
-2.233711e-008	0.0219727
-2.231211e-008	0.0241943
-2.228711e-008	0.0333984
-2.226211e-008	0.0186279
-2.223711e-008	0.020044
-2.221211e-008	0.0392578
-2.218711e-008	0.0168213
-2.216211e-008	0.00793458
-2.213711e-008	0.028418
-2.211211e-008	0.0224609
-2.208711e-008	0.018335
-2.206211e-008	0.0232178
-2.203711e-008	0.0287842
-2.201211e-008	0.0272461
-2.198711e-008	0.0129395
-2.196211e-008	0.0157959
-2.193711e-008	0.0217529
-2.191211e-008	0.0215576
-2.188711e-008	0.0196777
-2.186211e-008	0.0148193
-2.183711e-008	0.0245117
-2.181211e-008	0.0287842
-2.178711e-008	0.0217285
-2.176211e-008	0.0263428
-2.173711e-008	0.0287598
-2.171211e-008	0.0186524
-2.168711e-008	0.0170166
-2.166211e-008	0.018042
-2.163711e-008	0.0113037
-2.161211e-008	0.0191406
-2.158711e-008	0.0186035
-2.156211e-008	0.0100342
-2.153711e-008	0.0268311
-2.151211e-008	0.023584
-2.148711e-008	0.00864259
-2.146211e-008	0.0296387
-2.143711e-008	0.037207
-2.141211e-008	0.0195068
-2.138711e-008	0.0185059
-2.136211e-008	0.0220703
-2.133711e-008	0.0203613
-2.131211e-008	0.0156494
-2.128711e-008	0.0157959
-2.126211e-008	0.0220215
-2.123711e-008	0.013794
-2.121211e-008	0.0173828
-2.118711e-008	0.0250733
-2.116211e-008	0.0189697
-2.113711e-008	0.0207275
-2.111211e-008	0.0111572
-2.108711e-008	0.0136231
-2.106211e-008	0.0220947
-2.103711e-008	0.0111816
-2.101211e-008	0.0250488
-2.098711e-008	0.0300537
-2.096211e-008	0.00888673
-2.093711e-008	0.00637208
-2.091211e-008	0.0176514
-2.088711e-008	0.0236328
-2.086211e-008	0.0152588
-2.083711e-008	0.0235107
-2.081211e-008	0.036792
-2.078711e-008	0.0175781
-2.076211e-008	0.0149902
-2.073711e-008	0.0301514
-2.071211e-008	0.0314453
-2.068711e-008	0.024707
-2.066211e-008	0.0184815
-2.063711e-008	0.0362793
-2.061211e-008	0.0419922
-2.058711e-008	0.0228272
-2.056211e-008	0.0190186
-2.053711e-008	0.011377
-2.051211e-008	0.00771485
-2.048711e-008	0.0207764
-2.046211e-008	0.0186524
-2.043711e-008	0.0202881
-2.041211e-008	0.0256104
-2.038711e-008	0.000830086
-2.036211e-008	0.00283204
-2.033711e-008	0.0316406
-2.031211e-008	0.0208496
-2.028711e-008	0.0206055
-2.026211e-008	0.0395264
-2.023711e-008	0.0374756
-2.021211e-008	0.0276123
-2.018711e-008	0.0106445